<LesHouchesEvents version="3.0">
<header>
<!--
#*********************************************************************
#                                                                    *
#                        MadGraph5_aMC@NLO                           *
#                                                                    *
#                           Going Beyond                             *
#                                                                    *
#                   http://madgraph.hep.uiuc.edu                     *
#                   http://madgraph.phys.ucl.ac.be                   *
#                   http://amcatnlo.cern.ch                          *
#                                                                    *
#                     The MadGraph5_aMC@NLO team                     *
#                                                                    *
#....................................................................*
#                                                                    *
# This file contains all the information necessary to reproduce      *
# the events generated:                                              *
#                                                                    *
# 1. software version                                                *
# 2. proc_card          : code generation info including model       *
# 3. param_card         : model primary parameters in the LH format  *
# 4. run_card           : running parameters (collider and cuts)     *
# 5. pythia_card        : present only if pythia has been run        *
# 6. pgs_card           : present only if pgs has been run           *
# 7. delphes_cards      : present only if delphes has been run       *
#                                                                    *
#                                                                    *
#*********************************************************************
-->
<MGVersion>
2.6.4
</MGVersion>
<MG5ProcCard>
<![CDATA[
#************************************************************
#*                     MadGraph5_aMC@NLO                    *
#*                                                          *
#*                *                       *                 *
#*                  *        * *        *                   *
#*                    * * * * 5 * * * *                     *
#*                  *        * *        *                   *
#*                *                       *                 *
#*                                                          *
#*                                                          *
#*         VERSION 2.6.4                 2018-11-09         *
#*                                                          *
#*    The MadGraph5_aMC@NLO Development Team - Find us at   *
#*    https://server06.fynu.ucl.ac.be/projects/madgraph     *
#*                                                          *
#************************************************************
#*                                                          *
#*               Command File for MadGraph5_aMC@NLO         *
#*                                                          *
#*     run as ./bin/mg5_aMC  filename                       *
#*                                                          *
#************************************************************
set default_unset_couplings 99
set group_subprocesses Auto
set ignore_six_quark_processes False
set loop_optimized_output True
set loop_color_flows False
set gauge unitary
set complex_mass_scheme False
set max_npoint_for_channel 0
import model sm
define p = g u c d s u~ c~ d~ s~
define j = g u c d s u~ c~ d~ s~
define l+ = e+ mu+
define l- = e- mu-
define vl = ve vm vt
define vl~ = ve~ vm~ vt~
generate p p > l- vl~
launch
]]>
</MG5ProcCard>
<MGProcCard>
#*********************************************************************
#                        MadGraph/MadEvent                           *
#                   http://madgraph.hep.uiuc.edu                     *
#                                                                    *
#                          proc_card.dat                             *
#*********************************************************************
#                                                                    *
#            This Files is generated by MADGRAPH 5                   *
#                                                                    *
# WARNING: This Files is generated for MADEVENT (compatibility issue)*
#          This files is NOT a valid MG4 proc_card.dat               *
#          Running this in MG4 will NEVER reproduce the result of MG5*
#                                                                    *
#*********************************************************************
#*********************************************************************
# Process(es) requested : mg2 input                                  *
#*********************************************************************
# Begin PROCESS # This is TAG. Do not modify this line
p p > l- vl~           #Process
# Be carefull the coupling are here in MG5 convention
          
end_coup           # End the couplings input

done               # this tells MG there are no more procs
# End PROCESS  # This is TAG. Do not modify this line
#*********************************************************************
# Model information                                                  *
#*********************************************************************
# Begin MODEL  # This is TAG. Do not modify this line
sm
# End   MODEL  # This is TAG. Do not modify this line
#*********************************************************************
# Start multiparticle definitions                                    *
#*********************************************************************
# Begin MULTIPARTICLES # This is TAG. Do not modify this line

# End  MULTIPARTICLES # This is TAG. Do not modify this line
</MGProcCard>
<MGRunCard>
<![CDATA[
#*********************************************************************
#                       MadGraph5_aMC@NLO                            *
#                                                                    *
#                     run_card.dat MadEvent                          *
#                                                                    *
#  This file is used to set the parameters of the run.               *
#                                                                    *
#  Some notation/conventions:                                        *
#                                                                    *
#   Lines starting with a '# ' are info or comments                  *
#                                                                    *
#   mind the format:   value    = variable     ! comment             *
#                                                                    *
#   To display more options, you can type the command:               *
#      update full_run_card                                          *
#*********************************************************************
#
#*******************                                                 
# Running parameters
#*******************                                                 
#                                                                    
#*********************************************************************
# Tag name for the run (one word)                                    *
#*********************************************************************
  tag_1     = run_tag ! name of the run 
#*********************************************************************
# Number of events and rnd seed                                      *
# Warning: Do not generate more than 1M events in a single run       *
# If you want to run Pythia, avoid more than 50k events in a run.    *
#*********************************************************************
  500 = nevents ! Number of unweighted events requested 
 21 = iseed   ! rnd seed (0=assigned automatically=default))
#*********************************************************************
# Collider type and energy                                           *
# lpp: 0=No PDF, 1=proton, -1=antiproton, 2=photon from proton,      *
#                                         3=photon from electron     *
#*********************************************************************
     1        = lpp1    ! beam 1 type 
     1        = lpp2    ! beam 2 type
     6500.0     = ebeam1  ! beam 1 total energy in GeV
     6500.0     = ebeam2  ! beam 2 total energy in GeV
# To see polarised beam options: type "update beam_pol"
#*********************************************************************
# PDF CHOICE: this automatically fixes also alpha_s and its evol.    *
#*********************************************************************
     nn23lo1    = pdlabel     ! PDF set                                     
     230000    = lhaid     ! if pdlabel=lhapdf, this is the lhapdf number
# To see heavy ion options: type "update ion_pdf"
#*********************************************************************
# Renormalization and factorization scales                           *
#*********************************************************************
 False = fixed_ren_scale  ! if .true. use fixed ren scale
 False        = fixed_fac_scale  ! if .true. use fixed fac scale
 91.188  = scale            ! fixed ren scale
 91.188  = dsqrt_q2fact1    ! fixed fact scale for pdf1
 91.188  = dsqrt_q2fact2    ! fixed fact scale for pdf2
 -1 = dynamical_scale_choice ! Choose one of the preselected dynamical choices
 1.0  = scalefact        ! scale factor for event-by-event scales
#*********************************************************************
# Type and output format
#*********************************************************************
  False     = gridpack  !True = setting up the grid pack
  -1.0 = time_of_flight ! threshold (in mm) below which the invariant livetime is not written (-1 means not written)
  3.0 = lhe_version       ! Change the way clustering information pass to shower.        
  True = clusinfo         ! include clustering tag in output
  average =  event_norm       ! average/sum. Normalization of the weight in the LHEF

#*********************************************************************
# Matching parameter (MLM only)
#*********************************************************************
 0 = ickkw            ! 0 no matching, 1 MLM
 1.0 = alpsfact         ! scale factor for QCD emission vx
 False = chcluster        ! cluster only according to channel diag
 4 = asrwgtflavor     ! highest quark flavor for a_s reweight
 False  = auto_ptj_mjj  ! Automatic setting of ptj and mjj if xqcut >0
                                   ! (turn off for VBF and single top processes) 
 0.0   = xqcut   ! minimum kt jet measure between partons
#*********************************************************************
#
#*********************************************************************
# handling of the helicities:
#  0: sum over all helicities
#  1: importance sampling over helicities
#*********************************************************************
   0  = nhel          ! using helicities importance sampling or not.
#*********************************************************************
# Generation bias, check the wiki page below for more information:   *
#  'cp3.irmp.ucl.ac.be/projects/madgraph/wiki/LOEventGenerationBias' *
#*********************************************************************
 None = bias_module  ! Bias type of bias, [None, ptj_bias, -custom_folder-]
 {} = bias_parameters ! Specifies the parameters of the module.
#
#*******************************                                                 
# Parton level cuts definition *
#*******************************                                     
#                                                                    
#
#*********************************************************************
# BW cutoff (M+/-bwcutoff*Gamma) ! Define on/off-shell for "$" and decay  
#*********************************************************************
  15.0  = bwcutoff      ! (M+/-bwcutoff*Gamma)
#*********************************************************************
# Apply pt/E/eta/dr/mij/kt_durham cuts on decay products or not
# (note that etmiss/ptll/ptheavy/ht/sorted cuts always apply)
#*********************************************************************
   False  = cut_decays    ! Cut decay products 
#*********************************************************************
# Standard Cuts                                                      *
#*********************************************************************
# Minimum and maximum pt's (for max, -1 means no cut)                *
#*********************************************************************
 20.0  = ptj       ! minimum pt for the jets 
 0.0  = ptb       ! minimum pt for the b 
 10.0  = pta       ! minimum pt for the photons 
 10.0  = ptl       ! minimum pt for the charged leptons 
 0.0  = misset    ! minimum missing Et (sum of neutrino's momenta)
 -1.0  = ptjmax    ! maximum pt for the jets
 -1.0  = ptbmax    ! maximum pt for the b
 -1.0  = ptamax    ! maximum pt for the photons
 -1.0  = ptlmax    ! maximum pt for the charged leptons
 -1.0  = missetmax ! maximum missing Et (sum of neutrino's momenta)
 {} = pt_min_pdg ! pt cut for other particles (use pdg code). Applied on particle and anti-particle
 {}	= pt_max_pdg ! pt cut for other particles (syntax e.g. {6: 100, 25: 50}) 
#*********************************************************************
# Minimum and maximum E's (in the center of mass frame)              *
#*********************************************************************
  0.0  = ej     ! minimum E for the jets 
  0.0  = eb     ! minimum E for the b 
  0.0  = ea     ! minimum E for the photons 
  0.0  = el     ! minimum E for the charged leptons 
  -1.0   = ejmax ! maximum E for the jets
 -1.0   = ebmax ! maximum E for the b
 -1.0   = eamax ! maximum E for the photons
 -1.0   = elmax ! maximum E for the charged leptons
 {} = e_min_pdg ! E cut for other particles (use pdg code). Applied on particle and anti-particle
 {} = e_max_pdg ! E cut for other particles (syntax e.g. {6: 100, 25: 50}) 
#*********************************************************************
# Maximum and minimum absolute rapidity (for max, -1 means no cut)   *
#*********************************************************************
  5.0 = etaj    ! max rap for the jets 
  -1.0  = etab    ! max rap for the b
 2.5  = etaa    ! max rap for the photons 
 2.5  = etal    ! max rap for the charged leptons 
 0.0  = etajmin ! min rap for the jets
 0.0  = etabmin ! min rap for the b
 0.0  = etaamin ! min rap for the photons
 0.0  = etalmin ! main rap for the charged leptons
 {} = eta_min_pdg ! rap cut for other particles (use pdg code). Applied on particle and anti-particle
 {} = eta_max_pdg ! rap cut for other particles (syntax e.g. {6: 2.5, 23: 5})
#*********************************************************************
# Minimum and maximum DeltaR distance                                *
#*********************************************************************
 0.4 = drjj    ! min distance between jets 
 0.0   = drbb    ! min distance between b's 
 0.4 = drll    ! min distance between leptons 
 0.4 = draa    ! min distance between gammas 
 0.0   = drbj    ! min distance between b and jet 
 0.4 = draj    ! min distance between gamma and jet 
 0.4 = drjl    ! min distance between jet and lepton 
 0.0   = drab    ! min distance between gamma and b 
 0.0   = drbl    ! min distance between b and lepton 
 0.4 = dral    ! min distance between gamma and lepton 
 -1.0  = drjjmax ! max distance between jets
 -1.0  = drbbmax ! max distance between b's
 -1.0  = drllmax ! max distance between leptons
 -1.0  = draamax ! max distance between gammas
 -1.0  = drbjmax ! max distance between b and jet
 -1.0  = drajmax ! max distance between gamma and jet
 -1.0  = drjlmax ! max distance between jet and lepton
 -1.0  = drabmax ! max distance between gamma and b
 -1.0  = drblmax ! max distance between b and lepton
 -1.0  = dralmax ! maxdistance between gamma and lepton
#*********************************************************************
# Minimum and maximum invariant mass for pairs                       *
# WARNING: for four lepton final state mmll cut require to have      *
#          different lepton masses for each flavor!                  *           
#*********************************************************************
 0.0   = mmjj    ! min invariant mass of a jet pair 
 0.0   = mmbb    ! min invariant mass of a b pair 
 0.0   = mmaa    ! min invariant mass of gamma gamma pair
 0.0   = mmll    ! min invariant mass of l+l- (same flavour) lepton pair
 -1.0  = mmjjmax ! max invariant mass of a jet pair
 -1.0  = mmbbmax ! max invariant mass of a b pair
 -1.0  = mmaamax ! max invariant mass of gamma gamma pair
 -1.0  = mmllmax ! max invariant mass of l+l- (same flavour) lepton pair
 {} = mxx_min_pdg ! min invariant mass of a pair of particles X/X~ (e.g. {6:250})
 {'default': False} = mxx_only_part_antipart ! if True the invariant mass is applied only 
                       ! to pairs of particle/antiparticle and not to pairs of the same pdg codes.  
#*********************************************************************
# Minimum and maximum invariant mass for all letpons                 *
#*********************************************************************
 0.0   = mmnl    ! min invariant mass for all letpons (l+- and vl) 
 -1.0  = mmnlmax ! max invariant mass for all letpons (l+- and vl) 
#*********************************************************************
# Minimum and maximum pt for 4-momenta sum of leptons                *
#*********************************************************************
 0.0   = ptllmin  ! Minimum pt for 4-momenta sum of leptons(l and vl)
 -1.0  = ptllmax  ! Maximum pt for 4-momenta sum of leptons(l and vl)
#*********************************************************************
# Inclusive cuts                                                     *
#*********************************************************************
 0.0  = ptheavy   ! minimum pt for at least one heavy final state
 0.0  = xptj ! minimum pt for at least one jet  
 0.0  = xptb ! minimum pt for at least one b 
 0.0  = xpta ! minimum pt for at least one photon 
 0.0  = xptl ! minimum pt for at least one charged lepton 
#*********************************************************************
# Control the pt's of the jets sorted by pt                          *
#*********************************************************************
 0.0   = ptj1min ! minimum pt for the leading jet in pt
 0.0   = ptj2min ! minimum pt for the second jet in pt
 0.0   = ptj3min ! minimum pt for the third jet in pt
 0.0   = ptj4min ! minimum pt for the fourth jet in pt
 -1.0  = ptj1max ! maximum pt for the leading jet in pt 
 -1.0  = ptj2max ! maximum pt for the second jet in pt
 -1.0  = ptj3max ! maximum pt for the third jet in pt
 -1.0  = ptj4max ! maximum pt for the fourth jet in pt
 0   = cutuse  ! reject event if fails any (0) / all (1) jet pt cuts
#*********************************************************************
# Control the pt's of leptons sorted by pt                           *
#*********************************************************************
 0.0   = ptl1min ! minimum pt for the leading lepton in pt
 0.0   = ptl2min ! minimum pt for the second lepton in pt
 0.0   = ptl3min ! minimum pt for the third lepton in pt
 0.0   = ptl4min ! minimum pt for the fourth lepton in pt
 -1.0  = ptl1max ! maximum pt for the leading lepton in pt 
 -1.0  = ptl2max ! maximum pt for the second lepton in pt
 -1.0  = ptl3max ! maximum pt for the third lepton in pt
 -1.0  = ptl4max ! maximum pt for the fourth lepton in pt
#*********************************************************************
# Control the Ht(k)=Sum of k leading jets                            *
#*********************************************************************
 0.0   = htjmin ! minimum jet HT=Sum(jet pt)
 -1.0  = htjmax ! maximum jet HT=Sum(jet pt)
 0.0   = ihtmin  !inclusive Ht for all partons (including b)
 -1.0  = ihtmax  !inclusive Ht for all partons (including b)
 0.0   = ht2min ! minimum Ht for the two leading jets
 0.0   = ht3min ! minimum Ht for the three leading jets
 0.0   = ht4min ! minimum Ht for the four leading jets
 -1.0  = ht2max ! maximum Ht for the two leading jets
 -1.0  = ht3max ! maximum Ht for the three leading jets
 -1.0  = ht4max ! maximum Ht for the four leading jets
#***********************************************************************
# Photon-isolation cuts, according to hep-ph/9801442                   *
# When ptgmin=0, all the other parameters are ignored                  *
# When ptgmin>0, pta and draj are not going to be used                 *
#***********************************************************************
 0.0 = ptgmin ! Min photon transverse momentum
 0.4 = R0gamma ! Radius of isolation code
 1.0 = xn ! n parameter of eq.(3.4) in hep-ph/9801442
 1.0 = epsgamma ! epsilon_gamma parameter of eq.(3.4) in hep-ph/9801442
 True = isoEM ! isolate photons from EM energy (photons and leptons)
#*********************************************************************
# WBF cuts                                                           *
#*********************************************************************
 0.0   = xetamin ! minimum rapidity for two jets in the WBF case  
 0.0   = deltaeta ! minimum rapidity for two jets in the WBF case 
#***********************************************************************
# Turn on either the ktdurham or ptlund cut to activate                *
# CKKW(L) merging with Pythia8 [arXiv:1410.3012, arXiv:1109.4829]      *
#***********************************************************************
 -1.0  =  ktdurham        
 0.4   =  dparameter
 -1.0  =  ptlund
 1, 2, 3, 4, 5, 6, 21  =  pdgs_for_merging_cut ! PDGs for two cuts above   
#*********************************************************************
# maximal pdg code for quark to be considered as a light jet         *
# (otherwise b cuts are applied)                                     *
#*********************************************************************
 4 = maxjetflavor    ! Maximum jet pdg code
#*********************************************************************
#
#*********************************************************************
# Store info for systematics studies                                 *
# WARNING: Do not use for interference type of computation           *
#*********************************************************************
   True  = use_syst      ! Enable systematics studies
#
systematics = systematics_program ! none, systematics [python], SysCalc [depreceted, C++]
['--mur=0.5,1,2', '--muf=0.5,1,2', '--pdf=errorset'] = systematics_arguments ! see: https://cp3.irmp.ucl.ac.be/projects/madgraph/wiki/Systematics#Systematicspythonmodule
# Syscalc is deprecated but to see the associate options type'update syscalc'
]]>
</MGRunCard>
<slha>
######################################################################
## PARAM_CARD AUTOMATICALY GENERATED BY MG5 FOLLOWING UFO MODEL   ####
######################################################################
##                                                                  ##
##  Width set on Auto will be computed following the information    ##
##        present in the decay.py files of the model.               ##
##        See  arXiv:1402.1178 for more details.                    ##
##                                                                  ##
######################################################################

###################################
## INFORMATION FOR MASS
###################################
Block mass 
    5 4.700000e+00 # MB 
    6 1.730000e+02 # MT 
   15 1.777000e+00 # MTA 
   23 9.118800e+01 # MZ 
   25 1.250000e+02 # MH 
## Dependent parameters, given by model restrictions.
## Those values should be edited following the 
## analytical expression. MG5 ignores those values 
## but they are important for interfacing the output of MG5
## to external program such as Pythia.
  1 0.000000 # d : 0.0 
  2 0.000000 # u : 0.0 
  3 0.000000 # s : 0.0 
  4 0.000000 # c : 0.0 
  11 0.000000 # e- : 0.0 
  12 0.000000 # ve : 0.0 
  13 0.000000 # mu- : 0.0 
  14 0.000000 # vm : 0.0 
  16 0.000000 # vt : 0.0 
  21 0.000000 # g : 0.0 
  22 0.000000 # a : 0.0 
  24 80.419002 # w+ : cmath.sqrt(MZ__exp__2/2. + cmath.sqrt(MZ__exp__4/4. - (aEW*cmath.pi*MZ__exp__2)/(Gf*sqrt__2))) 

###################################
## INFORMATION FOR SMINPUTS
###################################
Block sminputs 
    1 1.325070e+02 # aEWM1 
    2 1.166390e-05 # Gf 
    3 1.180000e-01 # aS 

###################################
## INFORMATION FOR YUKAWA
###################################
Block yukawa 
    5 4.700000e+00 # ymb 
    6 1.730000e+02 # ymt 
   15 1.777000e+00 # ymtau 

###################################
## INFORMATION FOR DECAY
###################################
DECAY   6 1.491500e+00 # WT 
DECAY  23 2.441404e+00 # WZ 
DECAY  24 2.047600e+00 # WW 
DECAY  25 6.382339e-03 # WH 
## Dependent parameters, given by model restrictions.
## Those values should be edited following the 
## analytical expression. MG5 ignores those values 
## but they are important for interfacing the output of MG5
## to external program such as Pythia.
DECAY  1 0.000000 # d : 0.0 
DECAY  2 0.000000 # u : 0.0 
DECAY  3 0.000000 # s : 0.0 
DECAY  4 0.000000 # c : 0.0 
DECAY  5 0.000000 # b : 0.0 
DECAY  11 0.000000 # e- : 0.0 
DECAY  12 0.000000 # ve : 0.0 
DECAY  13 0.000000 # mu- : 0.0 
DECAY  14 0.000000 # vm : 0.0 
DECAY  15 0.000000 # ta- : 0.0 
DECAY  16 0.000000 # vt : 0.0 
DECAY  21 0.000000 # g : 0.0 
DECAY  22 0.000000 # a : 0.0
</slha>
<MGGenerationInfo>
#  Number of Events        :       500
#  Integrated weight (pb)  :       7570.7
</MGGenerationInfo>
</header>
<init>
2212 2212 6.500000e+03 6.500000e+03 0 0 247000 247000 -4 1
7.570700e+03 6.128400e+01 7.570700e+03 1
<generator name='MadGraph5_aMC@NLO' version='2.6.4'>please cite 1405.0301 </generator>
</init>
<event>
 5      1 +7.5707000e+03 9.51984800e+01 7.54677100e-03 1.29073000e-01
       -2 -1    0    0    0  501 -0.0000000000e+00 +0.0000000000e+00 +7.0077840818e+02 7.0077840818e+02 0.0000000000e+00 0.0000e+00 1.0000e+00
        1 -1    0    0  501    0 +0.0000000000e+00 -0.0000000000e+00 -3.2331011010e+00 3.2331011010e+00 0.0000000000e+00 0.0000e+00 -1.0000e+00
      -24  2    1    2    0    0 +0.0000000000e+00 +0.0000000000e+00 +6.9754530708e+02 7.0401150928e+02 9.5198475682e+01 0.0000e+00 0.0000e+00
       11  1    3    3    0    0 -3.3277975838e+00 +1.2524155976e+01 +1.0063032873e+01 1.6407112795e+01 0.0000000000e+00 0.0000e+00 -1.0000e+00
      -12  1    3    3    0    0 +3.3277975838e+00 -1.2524155976e+01 +6.8748227421e+02 6.8760439649e+02 0.0000000000e+00 0.0000e+00 1.0000e+00
<mgrwt>
<rscale>  0 0.95198476E+02</rscale>
<asrwt>0</asrwt>
<pdfrwt beam="1">  1        1 0.49740073E-03 0.95198476E+02</pdfrwt>
<pdfrwt beam="2">  1       -2 0.10781194E+00 0.95198476E+02</pdfrwt>
<totfact> 0.24047017E+04</totfact>
</mgrwt>
</event>
<event>
 5      1 +7.5707000e+03 8.53689100e+01 7.54677100e-03 1.31447100e-01
        1 -1    0    0  501    0 +0.0000000000e+00 +0.0000000000e+00 +7.3323138550e+01 7.3323138550e+01 0.0000000000e+00 0.0000e+00 -1.0000e+00
       -2 -1    0    0    0  501 -0.0000000000e+00 -0.0000000000e+00 -2.4848401831e+01 2.4848401831e+01 0.0000000000e+00 0.0000e+00 1.0000e+00
      -24  2    1    2    0    0 +0.0000000000e+00 +0.0000000000e+00 +4.8474736719e+01 9.8171540380e+01 8.5368912612e+01 0.0000e+00 0.0000e+00
       13  1    3    3    0    0 +1.3662836974e+00 +1.4606210051e+01 +7.0333092958e+01 7.1846726218e+01 0.0000000000e+00 0.0000e+00 -1.0000e+00
      -14  1    3    3    0    0 -1.3662836974e+00 -1.4606210051e+01 -2.1858356239e+01 2.6324814162e+01 0.0000000000e+00 0.0000e+00 1.0000e+00
<mgrwt>
<rscale>  0 0.85368913E+02</rscale>
<asrwt>0</asrwt>
<pdfrwt beam="1">  1        1 0.11280483E-01 0.85368913E+02</pdfrwt>
<pdfrwt beam="2">  1       -2 0.38228311E-02 0.85368913E+02</pdfrwt>
<totfact> 0.11690210E+05</totfact>
</mgrwt>
</event>
<event>
 5      1 +7.5707000e+03 8.15260800e+01 7.54677100e-03 1.32477600e-01
       -2 -1    0    0    0  501 -0.0000000000e+00 +0.0000000000e+00 +1.6408401881e+01 1.6408401881e+01 0.0000000000e+00 0.0000e+00 1.0000e+00
        1 -1    0    0  501    0 +0.0000000000e+00 -0.0000000000e+00 -1.0126674707e+02 1.0126674707e+02 0.0000000000e+00 0.0000e+00 -1.0000e+00
      -24  2    1    2    0    0 +0.0000000000e+00 +0.0000000000e+00 -8.4858345190e+01 1.1767514895e+02 8.1526081301e+01 0.0000e+00 0.0000e+00
       11  1    3    3    0    0 -2.9717841140e+01 +2.7878464488e+01 -4.0804704598e+01 5.7666132015e+01 0.0000000000e+00 0.0000e+00 -1.0000e+00
      -12  1    3    3    0    0 +2.9717841140e+01 -2.7878464488e+01 -4.4053640591e+01 6.0009016936e+01 0.0000000000e+00 0.0000e+00 1.0000e+00
<mgrwt>
<rscale>  0 0.81526081E+02</rscale>
<asrwt>0</asrwt>
<pdfrwt beam="1">  1        1 0.15579499E-01 0.81526081E+02</pdfrwt>
<pdfrwt beam="2">  1       -2 0.25243696E-02 0.81526081E+02</pdfrwt>
<totfact> 0.13996323E+05</totfact>
</mgrwt>
</event>
<event>
 5      1 +7.5707000e+03 8.08614600e+01 7.54677100e-03 1.32662400e-01
        1 -1    0    0  501    0 +0.0000000000e+00 +0.0000000000e+00 +8.5419279167e+01 8.5419279167e+01 0.0000000000e+00 0.0000e+00 -1.0000e+00
       -2 -1    0    0    0  501 -0.0000000000e+00 -0.0000000000e+00 -1.9136708774e+01 1.9136708774e+01 0.0000000000e+00 0.0000e+00 1.0000e+00
      -24  2    1    2    0    0 +0.0000000000e+00 +0.0000000000e+00 +6.6282570393e+01 1.0455598794e+02 8.0861458535e+01 0.0000e+00 0.0000e+00
       11  1    3    3    0    0 -3.5311207235e+01 -1.1641681323e+01 +5.3676958837e+01 6.5296447150e+01 0.0000000000e+00 0.0000e+00 -1.0000e+00
      -12  1    3    3    0    0 +3.5311207235e+01 +1.1641681323e+01 +1.2605611556e+01 3.9259540791e+01 0.0000000000e+00 0.0000e+00 1.0000e+00
<mgrwt>
<rscale>  0 0.80861459E+02</rscale>
<asrwt>0</asrwt>
<pdfrwt beam="1">  1        1 0.13141427E-01 0.80861459E+02</pdfrwt>
<pdfrwt beam="2">  1       -2 0.29441091E-02 0.80861459E+02</pdfrwt>
<totfact> 0.13909626E+05</totfact>
</mgrwt>
</event>
<event>
 5      1 +7.5707000e+03 8.16372700e+01 7.54677100e-03 1.32446800e-01
       -2 -1    0    0    0  501 -0.0000000000e+00 +0.0000000000e+00 +6.0668971355e+01 6.0668971355e+01 0.0000000000e+00 0.0000e+00 1.0000e+00
        1 -1    0    0  501    0 +0.0000000000e+00 -0.0000000000e+00 -2.7463147151e+01 2.7463147151e+01 0.0000000000e+00 0.0000e+00 -1.0000e+00
      -24  2    1    2    0    0 +0.0000000000e+00 +0.0000000000e+00 +3.3205824204e+01 8.8132118505e+01 8.1637268151e+01 0.0000e+00 0.0000e+00
       13  1    3    3    0    0 -3.4279371443e+01 -1.3161226489e+01 -2.6443493235e+00 3.6814206124e+01 0.0000000000e+00 0.0000e+00 -1.0000e+00
      -14  1    3    3    0    0 +3.4279371443e+01 +1.3161226489e+01 +3.5850173528e+01 5.1317912381e+01 0.0000000000e+00 0.0000e+00 1.0000e+00
<mgrwt>
<rscale>  0 0.81637268E+02</rscale>
<asrwt>0</asrwt>
<pdfrwt beam="1">  1        1 0.42250995E-02 0.81637268E+02</pdfrwt>
<pdfrwt beam="2">  1       -2 0.93336879E-02 0.81637268E+02</pdfrwt>
<totfact> 0.11224040E+05</totfact>
</mgrwt>
</event>
<event>
 5      1 +7.5707000e+03 8.17181300e+01 7.54677100e-03 1.32424500e-01
       -2 -1    0    0    0  501 -0.0000000000e+00 +0.0000000000e+00 +4.1113914779e+00 4.1113914779e+00 0.0000000000e+00 0.0000e+00 1.0000e+00
        1 -1    0    0  501    0 +0.0000000000e+00 -0.0000000000e+00 -4.0605796194e+02 4.0605796194e+02 0.0000000000e+00 0.0000e+00 -1.0000e+00
      -24  2    1    2    0    0 +0.0000000000e+00 +0.0000000000e+00 -4.0194657046e+02 4.1016935342e+02 8.1718131262e+01 0.0000e+00 0.0000e+00
       11  1    3    3    0    0 -2.9183083479e+01 +2.8392864314e+01 -2.1810978581e+02 2.2187763694e+02 0.0000000000e+00 0.0000e+00 -1.0000e+00
      -12  1    3    3    0    0 +2.9183083479e+01 -2.8392864314e+01 -1.8383678465e+02 1.8829171648e+02 0.0000000000e+00 0.0000e+00 1.0000e+00
<mgrwt>
<rscale>  0 0.81718131E+02</rscale>
<asrwt>0</asrwt>
<pdfrwt beam="1">  1        1 0.62470483E-01 0.81718131E+02</pdfrwt>
<pdfrwt beam="2">  1       -2 0.63252148E-03 0.81718131E+02</pdfrwt>
<totfact> 0.18005536E+05</totfact>
</mgrwt>
</event>
<event>
 5      1 +7.5707000e+03 8.15485900e+01 7.54677100e-03 1.32471300e-01
       -2 -1    0    0    0  501 -0.0000000000e+00 +0.0000000000e+00 +1.6249693334e+02 1.6249693334e+02 0.0000000000e+00 0.0000e+00 1.0000e+00
        1 -1    0    0  501    0 +0.0000000000e+00 -0.0000000000e+00 -1.0231228767e+01 1.0231228767e+01 0.0000000000e+00 0.0000e+00 -1.0000e+00
      -24  2    1    2    0    0 +0.0000000000e+00 +0.0000000000e+00 +1.5226570457e+02 1.7272816210e+02 8.1548594074e+01 0.0000e+00 0.0000e+00
       11  1    3    3    0    0 -1.8391181522e+01 +2.5453098319e+01 +2.1043999213e+01 3.7801397788e+01 0.0000000000e+00 0.0000e+00 -1.0000e+00
      -12  1    3    3    0    0 +1.8391181522e+01 -2.5453098319e+01 +1.3122170536e+02 1.3492676431e+02 0.0000000000e+00 0.0000e+00 1.0000e+00
<mgrwt>
<rscale>  0 0.81548594E+02</rscale>
<asrwt>0</asrwt>
<pdfrwt beam="1">  1        1 0.15740353E-02 0.81548594E+02</pdfrwt>
<pdfrwt beam="2">  1       -2 0.24999526E-01 0.81548594E+02</pdfrwt>
<totfact> 0.87552682E+04</totfact>
</mgrwt>
</event>
<event>
 5      1 +7.5707000e+03 7.96626500e+01 7.54677100e-03 1.33001200e-01
        1 -1    0    0  501    0 +0.0000000000e+00 +0.0000000000e+00 +7.5909846185e+02 7.5909846185e+02 0.0000000000e+00 0.0000e+00 -1.0000e+00
       -2 -1    0    0    0  501 -0.0000000000e+00 -0.0000000000e+00 -2.0900245833e+00 2.0900245833e+00 0.0000000000e+00 0.0000e+00 1.0000e+00
      -24  2    1    2    0    0 +0.0000000000e+00 +0.0000000000e+00 +7.5700843727e+02 7.6118848643e+02 7.9662649878e+01 0.0000e+00 0.0000e+00
       11  1    3    3    0    0 +3.2172130934e+01 +4.0980695376e+00 +1.5755614245e+02 1.6085949834e+02 0.0000000000e+00 0.0000e+00 -1.0000e+00
      -12  1    3    3    0    0 -3.2172130934e+01 -4.0980695376e+00 +5.9945229482e+02 6.0032898809e+02 0.0000000000e+00 0.0000e+00 1.0000e+00
<mgrwt>
<rscale>  0 0.79662650E+02</rscale>
<asrwt>0</asrwt>
<pdfrwt beam="1">  1        1 0.11678416E+00 0.79662650E+02</pdfrwt>
<pdfrwt beam="2">  1       -2 0.32154285E-03 0.79662650E+02</pdfrwt>
<totfact> 0.20192547E+05</totfact>
</mgrwt>
</event>
<event>
 5      1 +7.5707000e+03 8.07630000e+01 7.54677100e-03 1.32690000e-01
        1 -1    0    0  501    0 +0.0000000000e+00 +0.0000000000e+00 +3.5451972002e+02 3.5451972002e+02 0.0000000000e+00 0.0000e+00 -1.0000e+00
       -2 -1    0    0    0  501 -0.0000000000e+00 -0.0000000000e+00 -4.5996466839e+00 4.5996466839e+00 0.0000000000e+00 0.0000e+00 1.0000e+00
      -24  2    1    2    0    0 +0.0000000000e+00 +0.0000000000e+00 +3.4992007334e+02 3.5911936670e+02 8.0762997828e+01 0.0000e+00 0.0000e+00
       11  1    3    3    0    0 -2.8358350573e+01 +2.8658526995e+01 +1.6486106682e+02 1.6971941129e+02 0.0000000000e+00 0.0000e+00 -1.0000e+00
      -12  1    3    3    0    0 +2.8358350573e+01 -2.8658526995e+01 +1.8505900651e+02 1.8939995541e+02 0.0000000000e+00 0.0000e+00 1.0000e+00
<mgrwt>
<rscale>  0 0.80762998E+02</rscale>
<asrwt>0</asrwt>
<pdfrwt beam="1">  1        1 0.54541474E-01 0.80762998E+02</pdfrwt>
<pdfrwt beam="2">  1       -2 0.70763823E-03 0.80762998E+02</pdfrwt>
<totfact> 0.18146702E+05</totfact>
</mgrwt>
</event>
<event>
 5      1 +7.5707000e+03 7.95704500e+01 7.54677100e-03 1.33027500e-01
       -4 -1    0    0    0  501 -0.0000000000e+00 +0.0000000000e+00 +1.5012712480e+01 1.5012712480e+01 0.0000000000e+00 0.0000e+00 1.0000e+00
        3 -1    0    0  501    0 +0.0000000000e+00 -0.0000000000e+00 -1.0543491910e+02 1.0543491910e+02 0.0000000000e+00 0.0000e+00 -1.0000e+00
      -24  2    1    2    0    0 +0.0000000000e+00 +0.0000000000e+00 -9.0422206624e+01 1.2044763158e+02 7.9570449939e+01 0.0000e+00 0.0000e+00
       13  1    3    3    0    0 -2.4400353477e+01 -1.5141744396e+01 -8.6892520821e+01 9.1514806713e+01 0.0000000000e+00 0.0000e+00 -1.0000e+00
      -14  1    3    3    0    0 +2.4400353477e+01 +1.5141744396e+01 -3.5296858030e+00 2.8932824871e+01 0.0000000000e+00 0.0000e+00 1.0000e+00
<mgrwt>
<rscale>  0 0.79570450E+02</rscale>
<asrwt>0</asrwt>
<pdfrwt beam="1">  1        3 0.16220757E-01 0.79570450E+02</pdfrwt>
<pdfrwt beam="2">  1       -4 0.23096480E-02 0.79570450E+02</pdfrwt>
<totfact> 0.42887678E+04</totfact>
</mgrwt>
</event>
<event>
 5      1 +7.5707000e+03 8.14078500e+01 7.54677100e-03 1.32510300e-01
        1 -1    0    0  501    0 +0.0000000000e+00 +0.0000000000e+00 +2.3392957667e+02 2.3392957667e+02 0.0000000000e+00 0.0000e+00 -1.0000e+00
       -2 -1    0    0    0  501 -0.0000000000e+00 -0.0000000000e+00 -7.0825148818e+00 7.0825148818e+00 0.0000000000e+00 0.0000e+00 1.0000e+00
      -24  2    1    2    0    0 +0.0000000000e+00 +0.0000000000e+00 +2.2684706179e+02 2.4101209156e+02 8.1407854856e+01 0.0000e+00 0.0000e+00
       11  1    3    3    0    0 -2.3555280373e+01 +2.8492120372e+01 +1.6385358794e+02 1.6797217162e+02 0.0000000000e+00 0.0000e+00 -1.0000e+00
      -12  1    3    3    0    0 +2.3555280373e+01 -2.8492120372e+01 +6.2993473852e+01 7.3039919939e+01 0.0000000000e+00 0.0000e+00 1.0000e+00
<mgrwt>
<rscale>  0 0.81407855E+02</rscale>
<asrwt>0</asrwt>
<pdfrwt beam="1">  1        1 0.35989160E-01 0.81407855E+02</pdfrwt>
<pdfrwt beam="2">  1       -2 0.10896179E-02 0.81407855E+02</pdfrwt>
<totfact> 0.16414503E+05</totfact>
</mgrwt>
</event>
<event>
 5      1 +7.5707000e+03 8.03459500e+01 7.54677100e-03 1.32807300e-01
       -2 -1    0    0    0  501 -0.0000000000e+00 +0.0000000000e+00 +5.3853541005e+01 5.3853541005e+01 0.0000000000e+00 0.0000e+00 1.0000e+00
        1 -1    0    0  501    0 +0.0000000000e+00 -0.0000000000e+00 -2.9967720083e+01 2.9967720083e+01 0.0000000000e+00 0.0000e+00 -1.0000e+00
      -24  2    1    2    0    0 +0.0000000000e+00 +0.0000000000e+00 +2.3885820922e+01 8.3821261088e+01 8.0345948058e+01 0.0000e+00 0.0000e+00
       11  1    3    3    0    0 -7.4737485462e+00 +2.6523733496e+01 -1.8553370227e+01 3.3220368792e+01 0.0000000000e+00 0.0000e+00 -1.0000e+00
      -12  1    3    3    0    0 +7.4737485462e+00 -2.6523733496e+01 +4.2439191148e+01 5.0600892297e+01 0.0000000000e+00 0.0000e+00 1.0000e+00
<mgrwt>
<rscale>  0 0.80345948E+02</rscale>
<asrwt>0</asrwt>
<pdfrwt beam="1">  1        1 0.46104185E-02 0.80345948E+02</pdfrwt>
<pdfrwt beam="2">  1       -2 0.82851601E-02 0.80345948E+02</pdfrwt>
<totfact> 0.11943375E+05</totfact>
</mgrwt>
</event>
<event>
 5      1 +7.5707000e+03 8.70714200e+01 7.54677100e-03 1.31010300e-01
        1 -1    0    0  501    0 +0.0000000000e+00 +0.0000000000e+00 +8.5895235032e+01 8.5895235032e+01 0.0000000000e+00 0.0000e+00 -1.0000e+00
       -2 -1    0    0    0  501 -0.0000000000e+00 -0.0000000000e+00 -2.2065928659e+01 2.2065928659e+01 0.0000000000e+00 0.0000e+00 1.0000e+00
      -24  2    1    2    0    0 +0.0000000000e+00 +0.0000000000e+00 +6.3829306373e+01 1.0796116369e+02 8.7071421909e+01 0.0000e+00 0.0000e+00
       11  1    3    3    0    0 +3.1983861683e+01 +1.0527041812e+00 +6.8513839023e+01 7.5618924430e+01 0.0000000000e+00 0.0000e+00 -1.0000e+00
      -12  1    3    3    0    0 -3.1983861683e+01 -1.0527041812e+00 -4.6845326500e+00 3.2342239261e+01 0.0000000000e+00 0.0000e+00 1.0000e+00
<mgrwt>
<rscale>  0 0.87071422E+02</rscale>
<asrwt>0</asrwt>
<pdfrwt beam="1">  1        1 0.13214651E-01 0.87071422E+02</pdfrwt>
<pdfrwt beam="2">  1       -2 0.33947583E-02 0.87071422E+02</pdfrwt>
<totfact> 0.11371545E+05</totfact>
</mgrwt>
</event>
<event>
 5      1 +7.5707000e+03 7.94350500e+01 7.54677100e-03 1.33066200e-01
        1 -1    0    0  501    0 +0.0000000000e+00 +0.0000000000e+00 +2.1742671629e+01 2.1742671629e+01 0.0000000000e+00 0.0000e+00 -1.0000e+00
       -2 -1    0    0    0  501 -0.0000000000e+00 -0.0000000000e+00 -7.2552338474e+01 7.2552338474e+01 0.0000000000e+00 0.0000e+00 1.0000e+00
      -24  2    1    2    0    0 +0.0000000000e+00 +0.0000000000e+00 -5.0809666845e+01 9.4295010103e+01 7.9435046960e+01 0.0000e+00 0.0000e+00
       11  1    3    3    0    0 +9.5102687746e+00 +1.3123632514e+01 +1.7638660220e+01 2.3954065978e+01 0.0000000000e+00 0.0000e+00 -1.0000e+00
      -12  1    3    3    0    0 -9.5102687746e+00 -1.3123632514e+01 -6.8448327065e+01 7.0340944126e+01 0.0000000000e+00 0.0000e+00 1.0000e+00
<mgrwt>
<rscale>  0 0.79435047E+02</rscale>
<asrwt>0</asrwt>
<pdfrwt beam="1">  1        1 0.33450264E-02 0.79435047E+02</pdfrwt>
<pdfrwt beam="2">  1       -2 0.11161898E-01 0.79435047E+02</pdfrwt>
<totfact> 0.11615380E+05</totfact>
</mgrwt>
</event>
<event>
 5      1 +7.5707000e+03 8.02867200e+01 7.54677100e-03 1.32824000e-01
        3 -1    0    0  501    0 +0.0000000000e+00 +0.0000000000e+00 +1.4059326674e+01 1.4059326674e+01 0.0000000000e+00 0.0000e+00 -1.0000e+00
       -4 -1    0    0    0  501 -0.0000000000e+00 -0.0000000000e+00 -1.1462067388e+02 1.1462067388e+02 0.0000000000e+00 0.0000e+00 1.0000e+00
      -24  2    1    2    0    0 +0.0000000000e+00 +0.0000000000e+00 -1.0056134720e+02 1.2868000055e+02 8.0286723627e+01 0.0000e+00 0.0000e+00
       11  1    3    3    0    0 -3.3512591222e+01 -2.1089019587e+00 -8.5539413326e+01 9.1894137300e+01 0.0000000000e+00 0.0000e+00 -1.0000e+00
      -12  1    3    3    0    0 +3.3512591222e+01 +2.1089019587e+00 -1.5021933879e+01 3.6785863254e+01 0.0000000000e+00 0.0000e+00 1.0000e+00
<mgrwt>
<rscale>  0 0.80286724E+02</rscale>
<asrwt>0</asrwt>
<pdfrwt beam="1">  1        3 0.21629734E-02 0.80286724E+02</pdfrwt>
<pdfrwt beam="2">  1       -4 0.17633949E-01 0.80286724E+02</pdfrwt>
<totfact> 0.38839936E+04</totfact>
</mgrwt>
</event>
<event>
 5      1 +7.5707000e+03 8.19651900e+01 7.54677100e-03 1.32356500e-01
        1 -1    0    0  501    0 +0.0000000000e+00 +0.0000000000e+00 +3.0878590645e+01 3.0878590645e+01 0.0000000000e+00 0.0000e+00 -1.0000e+00
       -2 -1    0    0    0  501 -0.0000000000e+00 -0.0000000000e+00 -5.4392804219e+01 5.4392804219e+01 0.0000000000e+00 0.0000e+00 1.0000e+00
      -24  2    1    2    0    0 +0.0000000000e+00 +0.0000000000e+00 -2.3514213575e+01 8.5271394864e+01 8.1965191039e+01 0.0000e+00 0.0000e+00
       13  1    3    3    0    0 +1.9662110337e+01 -2.3232896297e+01 +1.6794536510e+01 3.4762372040e+01 0.0000000000e+00 0.0000e+00 -1.0000e+00
      -14  1    3    3    0    0 -1.9662110337e+01 +2.3232896297e+01 -4.0308750085e+01 5.0509022824e+01 0.0000000000e+00 0.0000e+00 1.0000e+00
<mgrwt>
<rscale>  0 0.81965191E+02</rscale>
<asrwt>0</asrwt>
<pdfrwt beam="1">  1        1 0.47505525E-02 0.81965191E+02</pdfrwt>
<pdfrwt beam="2">  1       -2 0.83681236E-02 0.81965191E+02</pdfrwt>
<totfact> 0.11337092E+05</totfact>
</mgrwt>
</event>
<event>
 5      1 +7.5707000e+03 8.12252800e+01 7.54677100e-03 1.32561000e-01
        1 -1    0    0  501    0 +0.0000000000e+00 +0.0000000000e+00 +3.0578059520e+02 3.0578059520e+02 0.0000000000e+00 0.0000e+00 -1.0000e+00
       -2 -1    0    0    0  501 -0.0000000000e+00 -0.0000000000e+00 -5.3940190919e+00 5.3940190919e+00 0.0000000000e+00 0.0000e+00 1.0000e+00
      -24  2    1    2    0    0 +0.0000000000e+00 +0.0000000000e+00 +3.0038657611e+02 3.1117461429e+02 8.1225276076e+01 0.0000e+00 0.0000e+00
       11  1    3    3    0    0 -3.8204347603e+01 -3.0877851526e+00 +2.0163157159e+02 2.0524228915e+02 0.0000000000e+00 0.0000e+00 -1.0000e+00
      -12  1    3    3    0    0 +3.8204347603e+01 +3.0877851526e+00 +9.8755004513e+01 1.0593232514e+02 0.0000000000e+00 0.0000e+00 1.0000e+00
<mgrwt>
<rscale>  0 0.81225276E+02</rscale>
<asrwt>0</asrwt>
<pdfrwt beam="1">  1        1 0.47043155E-01 0.81225276E+02</pdfrwt>
<pdfrwt beam="2">  1       -2 0.82984933E-03 0.81225276E+02</pdfrwt>
<totfact> 0.17395480E+05</totfact>
</mgrwt>
</event>
<event>
 5      1 +7.5707000e+03 7.85552000e+01 7.54677100e-03 1.33320200e-01
       -2 -1    0    0    0  501 -0.0000000000e+00 +0.0000000000e+00 +2.1928040591e+02 2.1928040591e+02 0.0000000000e+00 0.0000e+00 1.0000e+00
        1 -1    0    0  501    0 +0.0000000000e+00 -0.0000000000e+00 -7.0354197312e+00 7.0354197312e+00 0.0000000000e+00 0.0000e+00 -1.0000e+00
      -24  2    1    2    0    0 +0.0000000000e+00 +0.0000000000e+00 +2.1224498618e+02 2.2631582564e+02 7.8555195739e+01 0.0000e+00 0.0000e+00
       13  1    3    3    0    0 -2.4165816537e+01 +1.3596722097e+01 +2.5977827931e+01 3.7996119337e+01 0.0000000000e+00 0.0000e+00 -1.0000e+00
      -14  1    3    3    0    0 +2.4165816537e+01 -1.3596722097e+01 +1.8626715825e+02 1.8831970630e+02 0.0000000000e+00 0.0000e+00 1.0000e+00
<mgrwt>
<rscale>  0 0.78555196E+02</rscale>
<asrwt>0</asrwt>
<pdfrwt beam="1">  1        1 0.10823724E-02 0.78555196E+02</pdfrwt>
<pdfrwt beam="2">  1       -2 0.33735442E-01 0.78555196E+02</pdfrwt>
<totfact> 0.85793959E+04</totfact>
</mgrwt>
</event>
<event>
 5      1 +7.5707000e+03 7.88522800e+01 7.54677100e-03 1.33234000e-01
        1 -1    0    0  501    0 +0.0000000000e+00 +0.0000000000e+00 +5.7352027976e+02 5.7352027976e+02 0.0000000000e+00 0.0000e+00 -1.0000e+00
       -2 -1    0    0    0  501 -0.0000000000e+00 -0.0000000000e+00 -2.7103150857e+00 2.7103150857e+00 0.0000000000e+00 0.0000e+00 1.0000e+00
      -24  2    1    2    0    0 +0.0000000000e+00 +0.0000000000e+00 +5.7080996468e+02 5.7623059485e+02 7.8852283828e+01 0.0000e+00 0.0000e+00
       13  1    3    3    0    0 -5.2462582123e+00 +3.8389228431e+01 +2.3212142197e+02 2.3533297818e+02 0.0000000000e+00 0.0000e+00 -1.0000e+00
      -14  1    3    3    0    0 +5.2462582123e+00 -3.8389228431e+01 +3.3868854271e+02 3.4089761667e+02 0.0000000000e+00 0.0000e+00 1.0000e+00
<mgrwt>
<rscale>  0 0.78852284E+02</rscale>
<asrwt>0</asrwt>
<pdfrwt beam="1">  1        1 0.88233793E-01 0.78852284E+02</pdfrwt>
<pdfrwt beam="2">  1       -2 0.41697201E-03 0.78852284E+02</pdfrwt>
<totfact> 0.20639885E+05</totfact>
</mgrwt>
</event>
<event>
 5      1 +7.5707000e+03 7.96494100e+01 7.54677100e-03 1.33004900e-01
       -4 -1    0    0    0  501 -0.0000000000e+00 +0.0000000000e+00 +2.0661916073e+01 2.0661916073e+01 0.0000000000e+00 0.0000e+00 1.0000e+00
        3 -1    0    0  501    0 +0.0000000000e+00 -0.0000000000e+00 -7.6759933579e+01 7.6759933579e+01 0.0000000000e+00 0.0000e+00 -1.0000e+00
      -24  2    1    2    0    0 +0.0000000000e+00 +0.0000000000e+00 -5.6098017505e+01 9.7421849652e+01 7.9649414446e+01 0.0000e+00 0.0000e+00
       13  1    3    3    0    0 -9.4379939956e+00 +3.2842293573e+01 -5.3065458292e+01 6.3116042663e+01 0.0000000000e+00 0.0000e+00 -1.0000e+00
      -14  1    3    3    0    0 +9.4379939956e+00 -3.2842293573e+01 -3.0325592138e+00 3.4305806989e+01 0.0000000000e+00 0.0000e+00 1.0000e+00
<mgrwt>
<rscale>  0 0.79649414E+02</rscale>
<asrwt>0</asrwt>
<pdfrwt beam="1">  1        3 0.11809220E-01 0.79649414E+02</pdfrwt>
<pdfrwt beam="2">  1       -4 0.31787564E-02 0.79649414E+02</pdfrwt>
<totfact> 0.44644082E+04</totfact>
</mgrwt>
</event>
<event>
 5      1 +7.5707000e+03 8.36875400e+01 7.54677100e-03 1.31890100e-01
        1 -1    0    0  501    0 +0.0000000000e+00 +0.0000000000e+00 +1.9970628198e+02 1.9970628198e+02 0.0000000000e+00 0.0000e+00 -1.0000e+00
       -2 -1    0    0    0  501 -0.0000000000e+00 -0.0000000000e+00 -8.7673814047e+00 8.7673814047e+00 0.0000000000e+00 0.0000e+00 1.0000e+00
      -24  2    1    2    0    0 +0.0000000000e+00 +0.0000000000e+00 +1.9093890057e+02 2.0847366338e+02 8.3687541319e+01 0.0000e+00 0.0000e+00
       11  1    3    3    0    0 -2.3964320325e+01 +2.1347488857e+01 +1.6235419331e+02 1.6549588519e+02 0.0000000000e+00 0.0000e+00 -1.0000e+00
      -12  1    3    3    0    0 +2.3964320325e+01 -2.1347488857e+01 +2.8584707262e+01 4.2977778193e+01 0.0000000000e+00 0.0000e+00 1.0000e+00
<mgrwt>
<rscale>  0 0.83687541E+02</rscale>
<asrwt>0</asrwt>
<pdfrwt beam="1">  1        1 0.30724040E-01 0.83687541E+02</pdfrwt>
<pdfrwt beam="2">  1       -2 0.13488281E-02 0.83687541E+02</pdfrwt>
<totfact> 0.14784988E+05</totfact>
</mgrwt>
</event>
<event>
 5      1 +7.5707000e+03 8.81718200e+01 7.54677100e-03 1.30734000e-01
       -2 -1    0    0    0  501 -0.0000000000e+00 +0.0000000000e+00 +2.4165269298e+02 2.4165269298e+02 0.0000000000e+00 0.0000e+00 1.0000e+00
        1 -1    0    0  501    0 +0.0000000000e+00 -0.0000000000e+00 -8.0428139500e+00 8.0428139500e+00 0.0000000000e+00 0.0000e+00 -1.0000e+00
      -24  2    1    2    0    0 +0.0000000000e+00 +0.0000000000e+00 +2.3360987903e+02 2.4969550693e+02 8.8171824300e+01 0.0000e+00 0.0000e+00
       13  1    3    3    0    0 -1.9725415550e+00 +1.1267134460e+01 -3.7672845213e+00 1.2042909606e+01 0.0000000000e+00 0.0000e+00 -1.0000e+00
      -14  1    3    3    0    0 +1.9725415550e+00 -1.1267134460e+01 +2.3737716355e+02 2.3765259732e+02 0.0000000000e+00 0.0000e+00 1.0000e+00
<mgrwt>
<rscale>  0 0.88171824E+02</rscale>
<asrwt>0</asrwt>
<pdfrwt beam="1">  1        1 0.12373562E-02 0.88171824E+02</pdfrwt>
<pdfrwt beam="2">  1       -2 0.37177332E-01 0.88171824E+02</pdfrwt>
<totfact> 0.60908141E+04</totfact>
</mgrwt>
</event>
<event>
 5      1 +7.5707000e+03 7.94365100e+01 7.54677100e-03 1.33065800e-01
       -2 -1    0    0    0  501 -0.0000000000e+00 +0.0000000000e+00 +1.1944547314e+01 1.1944547314e+01 0.0000000000e+00 0.0000e+00 1.0000e+00
        1 -1    0    0  501    0 +0.0000000000e+00 -0.0000000000e+00 -1.3207196921e+02 1.3207196921e+02 0.0000000000e+00 0.0000e+00 -1.0000e+00
      -24  2    1    2    0    0 +0.0000000000e+00 +0.0000000000e+00 -1.2012742190e+02 1.4401651653e+02 7.9436512640e+01 0.0000e+00 0.0000e+00
       11  1    3    3    0    0 -2.4370917892e+01 +9.7378505035e+00 -1.1411268314e+02 1.1709172398e+02 0.0000000000e+00 0.0000e+00 -1.0000e+00
      -12  1    3    3    0    0 +2.4370917892e+01 -9.7378505035e+00 -6.0147387606e+00 2.6924792547e+01 0.0000000000e+00 0.0000e+00 1.0000e+00
<mgrwt>
<rscale>  0 0.79436513E+02</rscale>
<asrwt>0</asrwt>
<pdfrwt beam="1">  1        1 0.20318765E-01 0.79436513E+02</pdfrwt>
<pdfrwt beam="2">  1       -2 0.18376226E-02 0.79436513E+02</pdfrwt>
<totfact> 0.15721705E+05</totfact>
</mgrwt>
</event>
<event>
 5      1 +7.5707000e+03 8.10083000e+01 7.54677100e-03 1.32621400e-01
        1 -1    0    0  501    0 +0.0000000000e+00 +0.0000000000e+00 +4.0514858286e+00 4.0514858286e+00 0.0000000000e+00 0.0000e+00 -1.0000e+00
       -2 -1    0    0    0  501 -0.0000000000e+00 -0.0000000000e+00 -4.0493447910e+02 4.0493447910e+02 0.0000000000e+00 0.0000e+00 1.0000e+00
      -24  2    1    2    0    0 +0.0000000000e+00 +0.0000000000e+00 -4.0088299327e+02 4.0898596493e+02 8.1008303366e+01 0.0000e+00 0.0000e+00
       11  1    3    3    0    0 -1.1079259158e+01 -2.0354918075e+01 -3.2728113699e+01 4.0102395186e+01 0.0000000000e+00 0.0000e+00 -1.0000e+00
      -12  1    3    3    0    0 +1.1079259158e+01 +2.0354918075e+01 -3.6815487957e+02 3.6888356974e+02 0.0000000000e+00 0.0000e+00 1.0000e+00
<mgrwt>
<rscale>  0 0.81008303E+02</rscale>
<asrwt>0</asrwt>
<pdfrwt beam="1">  1        1 0.62330529E-03 0.81008303E+02</pdfrwt>
<pdfrwt beam="2">  1       -2 0.62297634E-01 0.81008303E+02</pdfrwt>
<totfact> 0.56745706E+04</totfact>
</mgrwt>
</event>
<event>
 5      1 +7.5707000e+03 7.96348000e+01 7.54677100e-03 1.33009100e-01
       -2 -1    0    0    0  501 -0.0000000000e+00 +0.0000000000e+00 +7.2052220721e+01 7.2052220721e+01 0.0000000000e+00 0.0000e+00 1.0000e+00
        1 -1    0    0  501    0 +0.0000000000e+00 -0.0000000000e+00 -2.2003838413e+01 2.2003838413e+01 0.0000000000e+00 0.0000e+00 -1.0000e+00
      -24  2    1    2    0    0 +0.0000000000e+00 +0.0000000000e+00 +5.0048382308e+01 9.4056059133e+01 7.9634801990e+01 0.0000e+00 0.0000e+00
       11  1    3    3    0    0 +1.2537166229e+01 +5.3718938197e+00 -1.9158573833e+01 2.3517838582e+01 0.0000000000e+00 0.0000e+00 -1.0000e+00
      -12  1    3    3    0    0 -1.2537166229e+01 -5.3718938197e+00 +6.9206956141e+01 7.0538220551e+01 0.0000000000e+00 0.0000e+00 1.0000e+00
<mgrwt>
<rscale>  0 0.79634802E+02</rscale>
<asrwt>0</asrwt>
<pdfrwt beam="1">  1        1 0.33852059E-02 0.79634802E+02</pdfrwt>
<pdfrwt beam="2">  1       -2 0.11084957E-01 0.79634802E+02</pdfrwt>
<totfact> 0.11557756E+05</totfact>
</mgrwt>
</event>
<event>
 5      1 +7.5707000e+03 8.06428000e+01 7.54677100e-03 1.32723700e-01
        1 -1    0    0  501    0 +0.0000000000e+00 +0.0000000000e+00 +4.5596733601e+00 4.5596733601e+00 0.0000000000e+00 0.0000e+00 -1.0000e+00
       -2 -1    0    0    0  501 -0.0000000000e+00 -0.0000000000e+00 -3.5656400710e+02 3.5656400710e+02 0.0000000000e+00 0.0000e+00 1.0000e+00
      -24  2    1    2    0    0 +0.0000000000e+00 +0.0000000000e+00 -3.5200433374e+02 3.6112368046e+02 8.0642802639e+01 0.0000e+00 0.0000e+00
       13  1    3    3    0    0 +1.2544535163e+01 -9.4642658733e+00 -9.7171069238e+00 1.8475926444e+01 0.0000000000e+00 0.0000e+00 -1.0000e+00
      -14  1    3    3    0    0 -1.2544535163e+01 +9.4642658733e+00 -3.4228722682e+02 3.4264775402e+02 0.0000000000e+00 0.0000e+00 1.0000e+00
<mgrwt>
<rscale>  0 0.80642803E+02</rscale>
<asrwt>0</asrwt>
<pdfrwt beam="1">  1        1 0.70148815E-03 0.80642803E+02</pdfrwt>
<pdfrwt beam="2">  1       -2 0.54856005E-01 0.80642803E+02</pdfrwt>
<totfact> 0.62287787E+04</totfact>
</mgrwt>
</event>
<event>
 5      1 +7.5707000e+03 8.02370000e+01 7.54677100e-03 1.32838000e-01
        1 -1    0    0  501    0 +0.0000000000e+00 +0.0000000000e+00 +8.3821951231e+00 8.3821951231e+00 0.0000000000e+00 0.0000e+00 -1.0000e+00
       -2 -1    0    0    0  501 -0.0000000000e+00 -0.0000000000e+00 -1.9201343331e+02 1.9201343331e+02 0.0000000000e+00 0.0000e+00 1.0000e+00
      -24  2    1    2    0    0 +0.0000000000e+00 +0.0000000000e+00 -1.8363123819e+02 2.0039562844e+02 8.0237000550e+01 0.0000e+00 0.0000e+00
       13  1    3    3    0    0 +2.9417567102e+01 -7.9620169544e+00 -2.6653725410e+01 4.0487134332e+01 0.0000000000e+00 0.0000e+00 -1.0000e+00
      -14  1    3    3    0    0 -2.9417567102e+01 +7.9620169544e+00 -1.5697751278e+02 1.5990849411e+02 0.0000000000e+00 0.0000e+00 1.0000e+00
<mgrwt>
<rscale>  0 0.80237001E+02</rscale>
<asrwt>0</asrwt>
<pdfrwt beam="1">  1        1 0.12895685E-02 0.80237001E+02</pdfrwt>
<pdfrwt beam="2">  1       -2 0.29540529E-01 0.80237001E+02</pdfrwt>
<totfact> 0.85816051E+04</totfact>
</mgrwt>
</event>
<event>
 5      1 +7.5707000e+03 7.86159400e+01 7.54677100e-03 1.33302600e-01
       -4 -1    0    0    0  501 -0.0000000000e+00 +0.0000000000e+00 +2.1344762845e+02 2.1344762845e+02 0.0000000000e+00 0.0000e+00 1.0000e+00
        3 -1    0    0  501    0 +0.0000000000e+00 -0.0000000000e+00 -7.2388549714e+00 7.2388549714e+00 0.0000000000e+00 0.0000e+00 -1.0000e+00
      -24  2    1    2    0    0 +0.0000000000e+00 +0.0000000000e+00 +2.0620877348e+02 2.2068648342e+02 7.8615937986e+01 0.0000e+00 0.0000e+00
       11  1    3    3    0    0 -2.4649809042e+01 +6.5929319336e-01 +1.7173193280e+01 3.0049398010e+01 0.0000000000e+00 0.0000e+00 -1.0000e+00
      -12  1    3    3    0    0 +2.4649809042e+01 -6.5929319336e-01 +1.8903558020e+02 1.9063708541e+02 0.0000000000e+00 0.0000e+00 1.0000e+00
<mgrwt>
<rscale>  0 0.78615938E+02</rscale>
<asrwt>0</asrwt>
<pdfrwt beam="1">  1        3 0.11136702E-02 0.78615938E+02</pdfrwt>
<pdfrwt beam="2">  1       -4 0.32838092E-01 0.78615938E+02</pdfrwt>
<totfact> 0.33578661E+04</totfact>
</mgrwt>
</event>
<event>
 5      1 +7.5707000e+03 7.77102300e+01 7.54677100e-03 1.33567800e-01
       -2 -1    0    0    0  501 -0.0000000000e+00 +0.0000000000e+00 +2.0578338355e+01 2.0578338355e+01 0.0000000000e+00 0.0000e+00 1.0000e+00
        1 -1    0    0  501    0 +0.0000000000e+00 -0.0000000000e+00 -7.3364522220e+01 7.3364522220e+01 0.0000000000e+00 0.0000e+00 -1.0000e+00
      -24  2    1    2    0    0 +0.0000000000e+00 +0.0000000000e+00 -5.2786183865e+01 9.3942860576e+01 7.7710229996e+01 0.0000e+00 0.0000e+00
       13  1    3    3    0    0 +2.8341407009e+01 -2.2515943449e+01 -4.3468670636e+01 5.6566141706e+01 0.0000000000e+00 0.0000e+00 -1.0000e+00
      -14  1    3    3    0    0 -2.8341407009e+01 +2.2515943449e+01 -9.3175132289e+00 3.7376718869e+01 0.0000000000e+00 0.0000e+00 1.0000e+00
<mgrwt>
<rscale>  0 0.77710230E+02</rscale>
<asrwt>0</asrwt>
<pdfrwt beam="1">  1        1 0.11286850E-01 0.77710230E+02</pdfrwt>
<pdfrwt beam="2">  1       -2 0.31658982E-02 0.77710230E+02</pdfrwt>
<totfact> 0.15126046E+05</totfact>
</mgrwt>
</event>
<event>
 5      1 +7.5707000e+03 7.93368600e+01 7.54677100e-03 1.33094400e-01
       -4 -1    0    0    0  501 -0.0000000000e+00 +0.0000000000e+00 +5.0283838152e+00 5.0283838152e+00 0.0000000000e+00 0.0000e+00 1.0000e+00
        3 -1    0    0  501    0 +0.0000000000e+00 -0.0000000000e+00 -3.1294034688e+02 3.1294034688e+02 0.0000000000e+00 0.0000e+00 -1.0000e+00
      -24  2    1    2    0    0 +0.0000000000e+00 +0.0000000000e+00 -3.0791196306e+02 3.1796873069e+02 7.9336855883e+01 0.0000e+00 0.0000e+00
       13  1    3    3    0    0 +1.7511477562e+00 +3.6559744084e+01 -2.1525127232e+02 2.1834099853e+02 0.0000000000e+00 0.0000e+00 -1.0000e+00
      -14  1    3    3    0    0 -1.7511477562e+00 -3.6559744084e+01 -9.2660690743e+01 9.9627732158e+01 0.0000000000e+00 0.0000e+00 1.0000e+00
<mgrwt>
<rscale>  0 0.79336856E+02</rscale>
<asrwt>0</asrwt>
<pdfrwt beam="1">  1        3 0.48144675E-01 0.79336856E+02</pdfrwt>
<pdfrwt beam="2">  1       -4 0.77359740E-03 0.79336856E+02</pdfrwt>
<totfact> 0.30750554E+04</totfact>
</mgrwt>
</event>
<event>
 5      1 +7.5707000e+03 8.63575700e+01 7.54677100e-03 1.31192000e-01
        1 -1    0    0  501    0 +0.0000000000e+00 +0.0000000000e+00 +1.8245053256e+02 1.8245053256e+02 0.0000000000e+00 0.0000e+00 -1.0000e+00
       -2 -1    0    0    0  501 -0.0000000000e+00 -0.0000000000e+00 -1.0218701094e+01 1.0218701094e+01 0.0000000000e+00 0.0000e+00 1.0000e+00
      -24  2    1    2    0    0 +0.0000000000e+00 +0.0000000000e+00 +1.7223183147e+02 1.9266923366e+02 8.6357569598e+01 0.0000e+00 0.0000e+00
       11  1    3    3    0    0 -3.0898353924e+01 +2.3781142779e+01 +1.2750538929e+02 1.3333369913e+02 0.0000000000e+00 0.0000e+00 -1.0000e+00
      -12  1    3    3    0    0 +3.0898353924e+01 -2.3781142779e+01 +4.4726442183e+01 5.9335534525e+01 0.0000000000e+00 0.0000e+00 1.0000e+00
<mgrwt>
<rscale>  0 0.86357570E+02</rscale>
<asrwt>0</asrwt>
<pdfrwt beam="1">  1        1 0.28069310E-01 0.86357570E+02</pdfrwt>
<pdfrwt beam="2">  1       -2 0.15721080E-02 0.86357570E+02</pdfrwt>
<totfact> 0.13353741E+05</totfact>
</mgrwt>
</event>
<event>
 5      1 +7.5707000e+03 8.07705100e+01 7.54677100e-03 1.32687900e-01
       -2 -1    0    0    0  501 -0.0000000000e+00 +0.0000000000e+00 +1.2508417258e+02 1.2508417258e+02 0.0000000000e+00 0.0000e+00 1.0000e+00
        1 -1    0    0  501    0 +0.0000000000e+00 -0.0000000000e+00 -1.3038970603e+01 1.3038970603e+01 0.0000000000e+00 0.0000e+00 -1.0000e+00
      -24  2    1    2    0    0 +0.0000000000e+00 +0.0000000000e+00 +1.1204520198e+02 1.3812314319e+02 8.0770510689e+01 0.0000e+00 0.0000e+00
       13  1    3    3    0    0 -1.6575942885e+01 -1.0536926860e+01 -4.3207906651e+00 2.0111139753e+01 0.0000000000e+00 0.0000e+00 -1.0000e+00
      -14  1    3    3    0    0 +1.6575942885e+01 +1.0536926860e+01 +1.1636599264e+02 1.1801200343e+02 0.0000000000e+00 0.0000e+00 1.0000e+00
<mgrwt>
<rscale>  0 0.80770511E+02</rscale>
<asrwt>0</asrwt>
<pdfrwt beam="1">  1        1 0.20059956E-02 0.80770511E+02</pdfrwt>
<pdfrwt beam="2">  1       -2 0.19243718E-01 0.80770511E+02</pdfrwt>
<totfact> 0.97525944E+04</totfact>
</mgrwt>
</event>
<event>
 5      1 +7.5707000e+03 7.86948700e+01 7.54677100e-03 1.33279700e-01
       -4 -1    0    0    0  501 -0.0000000000e+00 +0.0000000000e+00 +5.8405656274e+01 5.8405656274e+01 0.0000000000e+00 0.0000e+00 1.0000e+00
        3 -1    0    0  501    0 +0.0000000000e+00 -0.0000000000e+00 -2.6508061677e+01 2.6508061677e+01 0.0000000000e+00 0.0000e+00 -1.0000e+00
      -24  2    1    2    0    0 +0.0000000000e+00 +0.0000000000e+00 +3.1897594597e+01 8.4913717952e+01 7.8694872484e+01 0.0000e+00 0.0000e+00
       11  1    3    3    0    0 +2.3095732847e-01 -2.5175907896e+01 -1.6678832960e+01 3.0200383252e+01 0.0000000000e+00 0.0000e+00 -1.0000e+00
      -12  1    3    3    0    0 -2.3095732847e-01 +2.5175907896e+01 +4.8576427557e+01 5.4713334699e+01 0.0000000000e+00 0.0000e+00 1.0000e+00
<mgrwt>
<rscale>  0 0.78694872E+02</rscale>
<asrwt>0</asrwt>
<pdfrwt beam="1">  1        3 0.40781633E-02 0.78694872E+02</pdfrwt>
<pdfrwt beam="2">  1       -4 0.89854856E-02 0.78694872E+02</pdfrwt>
<totfact> 0.46081604E+04</totfact>
</mgrwt>
</event>
<event>
 5      1 +7.5707000e+03 8.31080200e+01 7.54677100e-03 1.32045600e-01
       -2 -1    0    0    0  501 -0.0000000000e+00 +0.0000000000e+00 +8.5929357100e+00 8.5929357100e+00 0.0000000000e+00 0.0000e+00 1.0000e+00
        1 -1    0    0  501    0 +0.0000000000e+00 -0.0000000000e+00 -2.0094830851e+02 2.0094830851e+02 0.0000000000e+00 0.0000e+00 -1.0000e+00
      -24  2    1    2    0    0 +0.0000000000e+00 +0.0000000000e+00 -1.9235537280e+02 2.0954124422e+02 8.3108023584e+01 0.0000e+00 0.0000e+00
       11  1    3    3    0    0 +1.9609563584e+01 +3.3714325046e+01 -1.3232535004e+02 1.3795357538e+02 0.0000000000e+00 0.0000e+00 -1.0000e+00
      -12  1    3    3    0    0 -1.9609563584e+01 -3.3714325046e+01 -6.0030022762e+01 7.1587668840e+01 0.0000000000e+00 0.0000e+00 1.0000e+00
<mgrwt>
<rscale>  0 0.83108024E+02</rscale>
<asrwt>0</asrwt>
<pdfrwt beam="1">  1        1 0.30915124E-01 0.83108024E+02</pdfrwt>
<pdfrwt beam="2">  1       -2 0.13219901E-02 0.83108024E+02</pdfrwt>
<totfact> 0.15079920E+05</totfact>
</mgrwt>
</event>
<event>
 5      1 +7.5707000e+03 8.09198700e+01 7.54677100e-03 1.32646100e-01
        1 -1    0    0  501    0 +0.0000000000e+00 +0.0000000000e+00 +1.8894695350e+02 1.8894695350e+02 0.0000000000e+00 0.0000e+00 -1.0000e+00
       -2 -1    0    0    0  501 -0.0000000000e+00 -0.0000000000e+00 -8.6638401073e+00 8.6638401073e+00 0.0000000000e+00 0.0000e+00 1.0000e+00
      -24  2    1    2    0    0 +0.0000000000e+00 +0.0000000000e+00 +1.8028311339e+02 1.9761079360e+02 8.0919866383e+01 0.0000e+00 0.0000e+00
       11  1    3    3    0    0 -6.4301399245e+00 -2.9265313079e+01 +1.5653676870e+02 1.5937868491e+02 0.0000000000e+00 0.0000e+00 -1.0000e+00
      -12  1    3    3    0    0 +6.4301399245e+00 +2.9265313079e+01 +2.3746344693e+01 3.8232108696e+01 0.0000000000e+00 0.0000e+00 1.0000e+00
<mgrwt>
<rscale>  0 0.80919866E+02</rscale>
<asrwt>0</asrwt>
<pdfrwt beam="1">  1        1 0.29068759E-01 0.80919866E+02</pdfrwt>
<pdfrwt beam="2">  1       -2 0.13328986E-02 0.80919866E+02</pdfrwt>
<totfact> 0.15997566E+05</totfact>
</mgrwt>
</event>
<event>
 5      1 +7.5707000e+03 8.58822500e+01 7.54677100e-03 1.31314100e-01
       -4 -1    0    0    0  501 -0.0000000000e+00 +0.0000000000e+00 +4.2795778345e+01 4.2795778345e+01 0.0000000000e+00 0.0000e+00 1.0000e+00
        3 -1    0    0  501    0 +0.0000000000e+00 -0.0000000000e+00 -4.3086966196e+01 4.3086966196e+01 0.0000000000e+00 0.0000e+00 -1.0000e+00
      -24  2    1    2    0    0 +0.0000000000e+00 +0.0000000000e+00 -2.9118785138e-01 8.5882744542e+01 8.5882250900e+01 0.0000e+00 0.0000e+00
       11  1    3    3    0    0 -1.8382753570e+01 +3.3739669043e+01 -1.9319888838e+01 4.3006383255e+01 0.0000000000e+00 0.0000e+00 -1.0000e+00
      -12  1    3    3    0    0 +1.8382753570e+01 -3.3739669043e+01 +1.9028700987e+01 4.2876361287e+01 0.0000000000e+00 0.0000e+00 1.0000e+00
<mgrwt>
<rscale>  0 0.85882251E+02</rscale>
<asrwt>0</asrwt>
<pdfrwt beam="1">  1        3 0.66287640E-02 0.85882251E+02</pdfrwt>
<pdfrwt beam="2">  1       -4 0.65839660E-02 0.85882251E+02</pdfrwt>
<totfact> 0.36776690E+04</totfact>
</mgrwt>
</event>
<event>
 5      1 +7.5707000e+03 8.09777500e+01 7.54677100e-03 1.32629900e-01
       -4 -1    0    0    0  501 -0.0000000000e+00 +0.0000000000e+00 +5.4996054026e+01 5.4996054026e+01 0.0000000000e+00 0.0000e+00 1.0000e+00
        3 -1    0    0  501    0 +0.0000000000e+00 -0.0000000000e+00 -2.9808487276e+01 2.9808487276e+01 0.0000000000e+00 0.0000e+00 -1.0000e+00
      -24  2    1    2    0    0 +0.0000000000e+00 +0.0000000000e+00 +2.5187566751e+01 8.4804541302e+01 8.0977754394e+01 0.0000e+00 0.0000e+00
       11  1    3    3    0    0 -6.4161759095e+00 -2.1843640423e+01 -2.2470373408e+01 3.1987960568e+01 0.0000000000e+00 0.0000e+00 -1.0000e+00
      -12  1    3    3    0    0 +6.4161759095e+00 +2.1843640423e+01 +4.7657940159e+01 5.2816580734e+01 0.0000000000e+00 0.0000e+00 1.0000e+00
<mgrwt>
<rscale>  0 0.80977754E+02</rscale>
<asrwt>0</asrwt>
<pdfrwt beam="1">  1        3 0.45859211E-02 0.80977754E+02</pdfrwt>
<pdfrwt beam="2">  1       -4 0.84609314E-02 0.80977754E+02</pdfrwt>
<totfact> 0.42803529E+04</totfact>
</mgrwt>
</event>
<event>
 5      1 +7.5707000e+03 8.34126100e+01 7.54677100e-03 1.31963700e-01
        3 -1    0    0  501    0 +0.0000000000e+00 +0.0000000000e+00 +4.1727563796e+01 4.1727563796e+01 0.0000000000e+00 0.0000e+00 -1.0000e+00
       -4 -1    0    0    0  501 -0.0000000000e+00 -0.0000000000e+00 -4.1685056026e+01 4.1685056026e+01 0.0000000000e+00 0.0000e+00 1.0000e+00
      -24  2    1    2    0    0 +0.0000000000e+00 +0.0000000000e+00 +4.2507770688e-02 8.3412619822e+01 8.3412608991e+01 0.0000e+00 0.0000e+00
       11  1    3    3    0    0 +4.1212426756e+01 +4.4076793066e+00 +4.6606594795e+00 4.1708674191e+01 0.0000000000e+00 0.0000e+00 -1.0000e+00
      -12  1    3    3    0    0 -4.1212426756e+01 -4.4076793066e+00 -4.6181517088e+00 4.1703945631e+01 0.0000000000e+00 0.0000e+00 1.0000e+00
<mgrwt>
<rscale>  0 0.83412609E+02</rscale>
<asrwt>0</asrwt>
<pdfrwt beam="1">  1        3 0.64196252E-02 0.83412609E+02</pdfrwt>
<pdfrwt beam="2">  1       -4 0.64130855E-02 0.83412609E+02</pdfrwt>
<totfact> 0.40011851E+04</totfact>
</mgrwt>
</event>
<event>
 5      1 +7.5707000e+03 8.14577900e+01 7.54677100e-03 1.32496500e-01
        1 -1    0    0  501    0 +0.0000000000e+00 +0.0000000000e+00 +5.9365281476e+00 5.9365281476e+00 0.0000000000e+00 0.0000e+00 -1.0000e+00
       -2 -1    0    0    0  501 -0.0000000000e+00 -0.0000000000e+00 -2.7942981417e+02 2.7942981417e+02 0.0000000000e+00 0.0000e+00 1.0000e+00
      -24  2    1    2    0    0 +0.0000000000e+00 +0.0000000000e+00 -2.7349328602e+02 2.8536634231e+02 8.1457791698e+01 0.0000e+00 0.0000e+00
       13  1    3    3    0    0 +5.8728802374e-01 +3.2593580097e+01 -5.1210376622e+01 6.0705757919e+01 0.0000000000e+00 0.0000e+00 -1.0000e+00
      -14  1    3    3    0    0 -5.8728802374e-01 -3.2593580097e+01 -2.2228290940e+02 2.2466058439e+02 0.0000000000e+00 0.0000e+00 1.0000e+00
<mgrwt>
<rscale>  0 0.81457792E+02</rscale>
<asrwt>0</asrwt>
<pdfrwt beam="1">  1        1 0.91331201E-03 0.81457792E+02</pdfrwt>
<pdfrwt beam="2">  1       -2 0.42989203E-01 0.81457792E+02</pdfrwt>
<totfact> 0.69639685E+04</totfact>
</mgrwt>
</event>
<event>
 5      1 +7.5707000e+03 7.95349800e+01 7.54677100e-03 1.33037600e-01
       -2 -1    0    0    0  501 -0.0000000000e+00 +0.0000000000e+00 +3.7297765026e+01 3.7297765026e+01 0.0000000000e+00 0.0000e+00 1.0000e+00
        1 -1    0    0  501    0 +0.0000000000e+00 -0.0000000000e+00 -4.2400750185e+01 4.2400750185e+01 0.0000000000e+00 0.0000e+00 -1.0000e+00
      -24  2    1    2    0    0 +0.0000000000e+00 +0.0000000000e+00 -5.1029851583e+00 7.9698515211e+01 7.9534978904e+01 0.0000e+00 0.0000e+00
       11  1    3    3    0    0 +6.1684908830e+00 +1.6940259390e+01 -3.8070539514e+01 4.2123492814e+01 0.0000000000e+00 0.0000e+00 -1.0000e+00
      -12  1    3    3    0    0 -6.1684908830e+00 -1.6940259390e+01 +3.2967554355e+01 3.7575022397e+01 0.0000000000e+00 0.0000e+00 1.0000e+00
<mgrwt>
<rscale>  0 0.79534979E+02</rscale>
<asrwt>0</asrwt>
<pdfrwt beam="1">  1        1 0.65231923E-02 0.79534979E+02</pdfrwt>
<pdfrwt beam="2">  1       -2 0.57381177E-02 0.79534979E+02</pdfrwt>
<totfact> 0.13028906E+05</totfact>
</mgrwt>
</event>
<event>
 5      1 +7.5707000e+03 7.88611800e+01 7.54677100e-03 1.33231500e-01
        1 -1    0    0  501    0 +0.0000000000e+00 +0.0000000000e+00 +1.4722136322e+01 1.4722136322e+01 0.0000000000e+00 0.0000e+00 -1.0000e+00
       -2 -1    0    0    0  501 -0.0000000000e+00 -0.0000000000e+00 -1.0560773822e+02 1.0560773822e+02 0.0000000000e+00 0.0000e+00 1.0000e+00
      -24  2    1    2    0    0 +0.0000000000e+00 +0.0000000000e+00 -9.0885601900e+01 1.2032987454e+02 7.8861182308e+01 0.0000e+00 0.0000e+00
       13  1    3    3    0    0 -3.5356241768e+01 +1.4209059745e+01 -2.9971440296e+01 4.8479361013e+01 0.0000000000e+00 0.0000e+00 -1.0000e+00
      -14  1    3    3    0    0 +3.5356241768e+01 -1.4209059745e+01 -6.0914161603e+01 7.1850513531e+01 0.0000000000e+00 0.0000e+00 1.0000e+00
<mgrwt>
<rscale>  0 0.78861182E+02</rscale>
<asrwt>0</asrwt>
<pdfrwt beam="1">  1        1 0.22649440E-02 0.78861182E+02</pdfrwt>
<pdfrwt beam="2">  1       -2 0.16247345E-01 0.78861182E+02</pdfrwt>
<totfact> 0.10858953E+05</totfact>
</mgrwt>
</event>
<event>
 5      1 +7.5707000e+03 7.72791800e+01 7.54677100e-03 1.33695500e-01
        1 -1    0    0  501    0 +0.0000000000e+00 +0.0000000000e+00 +6.8729122338e+00 6.8729122338e+00 0.0000000000e+00 0.0000e+00 -1.0000e+00
       -2 -1    0    0    0  501 -0.0000000000e+00 -0.0000000000e+00 -2.1723221387e+02 2.1723221387e+02 0.0000000000e+00 0.0000e+00 1.0000e+00
      -24  2    1    2    0    0 +0.0000000000e+00 +0.0000000000e+00 -2.1035930164e+02 2.2410512610e+02 7.7279180645e+01 0.0000e+00 0.0000e+00
       11  1    3    3    0    0 +1.4175468152e+01 -1.7740447149e+01 -1.4519910910e+01 2.6953574443e+01 0.0000000000e+00 0.0000e+00 -1.0000e+00
      -12  1    3    3    0    0 -1.4175468152e+01 +1.7740447149e+01 -1.9583939073e+02 1.9715155166e+02 0.0000000000e+00 0.0000e+00 1.0000e+00
<mgrwt>
<rscale>  0 0.77279181E+02</rscale>
<asrwt>0</asrwt>
<pdfrwt beam="1">  1        1 0.10573711E-02 0.77279181E+02</pdfrwt>
<pdfrwt beam="2">  1       -2 0.33420340E-01 0.77279181E+02</pdfrwt>
<totfact> 0.89854797E+04</totfact>
</mgrwt>
</event>
<event>
 5      1 +7.5707000e+03 7.96554200e+01 7.54677100e-03 1.33003200e-01
        1 -1    0    0  501    0 +0.0000000000e+00 +0.0000000000e+00 +4.3363584944e+00 4.3363584944e+00 0.0000000000e+00 0.0000e+00 -1.0000e+00
       -2 -1    0    0    0  501 -0.0000000000e+00 -0.0000000000e+00 -3.6580151713e+02 3.6580151713e+02 0.0000000000e+00 0.0000e+00 1.0000e+00
      -24  2    1    2    0    0 +0.0000000000e+00 +0.0000000000e+00 -3.6146515864e+02 3.7013787562e+02 7.9655420809e+01 0.0000e+00 0.0000e+00
       11  1    3    3    0    0 +2.8724350897e+00 +3.9688994814e+01 -1.7298586155e+02 1.7750373374e+02 0.0000000000e+00 0.0000e+00 -1.0000e+00
      -12  1    3    3    0    0 -2.8724350897e+00 -3.9688994814e+01 -1.8847929708e+02 1.9263414189e+02 0.0000000000e+00 0.0000e+00 1.0000e+00
<mgrwt>
<rscale>  0 0.79655421E+02</rscale>
<asrwt>0</asrwt>
<pdfrwt beam="1">  1        1 0.66713179E-03 0.79655421E+02</pdfrwt>
<pdfrwt beam="2">  1       -2 0.56277180E-01 0.79655421E+02</pdfrwt>
<totfact> 0.63292544E+04</totfact>
</mgrwt>
</event>
<event>
 5      1 +7.5707000e+03 8.01069400e+01 7.54677100e-03 1.32874800e-01
       -4 -1    0    0    0  501 -0.0000000000e+00 +0.0000000000e+00 +3.7199343150e+01 3.7199343150e+01 0.0000000000e+00 0.0000e+00 1.0000e+00
        3 -1    0    0  501    0 +0.0000000000e+00 -0.0000000000e+00 -4.3126581047e+01 4.3126581047e+01 0.0000000000e+00 0.0000e+00 -1.0000e+00
      -24  2    1    2    0    0 +0.0000000000e+00 +0.0000000000e+00 -5.9272378969e+00 8.0325924196e+01 8.0106940704e+01 0.0000e+00 0.0000e+00
       13  1    3    3    0    0 +2.3584679902e+01 -1.0934477608e+01 -3.3517894608e+01 4.2417557516e+01 0.0000000000e+00 0.0000e+00 -1.0000e+00
      -14  1    3    3    0    0 -2.3584679902e+01 +1.0934477608e+01 +2.7590656711e+01 3.7908366681e+01 0.0000000000e+00 0.0000e+00 1.0000e+00
<mgrwt>
<rscale>  0 0.80106941E+02</rscale>
<asrwt>0</asrwt>
<pdfrwt beam="1">  1        3 0.66348586E-02 0.80106941E+02</pdfrwt>
<pdfrwt beam="2">  1       -4 0.57229759E-02 0.80106941E+02</pdfrwt>
<totfact> 0.45020394E+04</totfact>
</mgrwt>
</event>
<event>
 5      1 +7.5707000e+03 8.00573600e+01 7.54677100e-03 1.32888900e-01
       -4 -1    0    0    0  501 -0.0000000000e+00 +0.0000000000e+00 +2.8772517508e+02 2.8772517508e+02 0.0000000000e+00 0.0000e+00 1.0000e+00
        3 -1    0    0  501    0 +0.0000000000e+00 -0.0000000000e+00 -5.5688385567e+00 5.5688385567e+00 0.0000000000e+00 0.0000e+00 -1.0000e+00
      -24  2    1    2    0    0 +0.0000000000e+00 +0.0000000000e+00 +2.8215633653e+02 2.9329401364e+02 8.0057355658e+01 0.0000e+00 0.0000e+00
       13  1    3    3    0    0 +1.8012772854e+01 +2.8425743519e-01 +1.0122100297e+01 2.0663922730e+01 0.0000000000e+00 0.0000e+00 -1.0000e+00
      -14  1    3    3    0    0 -1.8012772854e+01 -2.8425743519e-01 +2.7203423623e+02 2.7263009091e+02 0.0000000000e+00 0.0000e+00 1.0000e+00
<mgrwt>
<rscale>  0 0.80057356E+02</rscale>
<asrwt>0</asrwt>
<pdfrwt beam="1">  1        3 0.85674462E-03 0.80057356E+02</pdfrwt>
<pdfrwt beam="2">  1       -4 0.44265400E-01 0.80057356E+02</pdfrwt>
<totfact> 0.27931245E+04</totfact>
</mgrwt>
</event>
<event>
 5      1 +7.5707000e+03 8.40694900e+01 7.54677100e-03 1.31788400e-01
        3 -1    0    0  501    0 +0.0000000000e+00 +0.0000000000e+00 +6.3663914844e+01 6.3663914844e+01 0.0000000000e+00 0.0000e+00 -1.0000e+00
       -4 -1    0    0    0  501 -0.0000000000e+00 -0.0000000000e+00 -2.7753863476e+01 2.7753863476e+01 0.0000000000e+00 0.0000e+00 1.0000e+00
      -24  2    1    2    0    0 +0.0000000000e+00 +0.0000000000e+00 +3.5910051368e+01 9.1417778319e+01 8.4069485568e+01 0.0000e+00 0.0000e+00
       11  1    3    3    0    0 -2.5804647063e+01 +2.5789750416e+01 +4.0658898033e+01 5.4627255339e+01 0.0000000000e+00 0.0000e+00 -1.0000e+00
      -12  1    3    3    0    0 +2.5804647063e+01 -2.5789750416e+01 -4.7488466650e+00 3.6790522981e+01 0.0000000000e+00 0.0000e+00 1.0000e+00
<mgrwt>
<rscale>  0 0.84069486E+02</rscale>
<asrwt>0</asrwt>
<pdfrwt beam="1">  1        3 0.97944484E-02 0.84069486E+02</pdfrwt>
<pdfrwt beam="2">  1       -4 0.42698252E-02 0.84069486E+02</pdfrwt>
<totfact> 0.38912517E+04</totfact>
</mgrwt>
</event>
<event>
 5      1 +7.5707000e+03 8.02313700e+01 7.54677100e-03 1.32839600e-01
        3 -1    0    0  501    0 +0.0000000000e+00 +0.0000000000e+00 +3.0909598478e+01 3.0909598478e+01 0.0000000000e+00 0.0000e+00 -1.0000e+00
       -4 -1    0    0    0  501 -0.0000000000e+00 -0.0000000000e+00 -5.2063705590e+01 5.2063705590e+01 0.0000000000e+00 0.0000e+00 1.0000e+00
      -24  2    1    2    0    0 +0.0000000000e+00 +0.0000000000e+00 -2.1154107113e+01 8.2973304068e+01 8.0231371297e+01 0.0000e+00 0.0000e+00
       11  1    3    3    0    0 -6.9328486382e+00 +3.8073544732e+01 +3.4851001734e-01 3.8701171274e+01 0.0000000000e+00 0.0000e+00 -1.0000e+00
      -12  1    3    3    0    0 +6.9328486382e+00 -3.8073544732e+01 -2.1502617130e+01 4.4272132794e+01 0.0000000000e+00 0.0000e+00 1.0000e+00
<mgrwt>
<rscale>  0 0.80231371E+02</rscale>
<asrwt>0</asrwt>
<pdfrwt beam="1">  1        3 0.47553229E-02 0.80231371E+02</pdfrwt>
<pdfrwt beam="2">  1       -4 0.80098007E-02 0.80231371E+02</pdfrwt>
<totfact> 0.44127367E+04</totfact>
</mgrwt>
</event>
<event>
 5      1 +7.5707000e+03 8.01132600e+01 7.54677100e-03 1.32873000e-01
        1 -1    0    0  501    0 +0.0000000000e+00 +0.0000000000e+00 +2.7106852549e+01 2.7106852549e+01 0.0000000000e+00 0.0000e+00 -1.0000e+00
       -2 -1    0    0    0  501 -0.0000000000e+00 -0.0000000000e+00 -5.9192910440e+01 5.9192910440e+01 0.0000000000e+00 0.0000e+00 1.0000e+00
      -24  2    1    2    0    0 +0.0000000000e+00 +0.0000000000e+00 -3.2086057891e+01 8.6299762989e+01 8.0113257211e+01 0.0000e+00 0.0000e+00
       13  1    3    3    0    0 +3.7423408071e+01 +1.2851709190e+01 -9.3282457835e+00 4.0653340209e+01 0.0000000000e+00 0.0000e+00 -1.0000e+00
      -14  1    3    3    0    0 -3.7423408071e+01 -1.2851709190e+01 -2.2757812107e+01 4.5646422780e+01 0.0000000000e+00 0.0000e+00 1.0000e+00
<mgrwt>
<rscale>  0 0.80113257E+02</rscale>
<asrwt>0</asrwt>
<pdfrwt beam="1">  1        1 0.41702850E-02 0.80113257E+02</pdfrwt>
<pdfrwt beam="2">  1       -2 0.91066016E-02 0.80113257E+02</pdfrwt>
<totfact> 0.11826422E+05</totfact>
</mgrwt>
</event>
<event>
 5      1 +7.5707000e+03 7.93255100e+01 7.54677100e-03 1.33097700e-01
        1 -1    0    0  501    0 +0.0000000000e+00 +0.0000000000e+00 +1.0528534461e+00 1.0528534461e+00 0.0000000000e+00 0.0000e+00 -1.0000e+00
       -2 -1    0    0    0  501 -0.0000000000e+00 -0.0000000000e+00 -1.4941625569e+03 1.4941625569e+03 0.0000000000e+00 0.0000e+00 1.0000e+00
      -24  2    1    2    0    0 +0.0000000000e+00 +0.0000000000e+00 -1.4931097035e+03 1.4952154104e+03 7.9325511587e+01 0.0000e+00 0.0000e+00
       13  1    3    3    0    0 -7.8223318630e-01 +1.8780224400e+01 -8.8230783472e+01 9.0210752515e+01 0.0000000000e+00 0.0000e+00 -1.0000e+00
      -14  1    3    3    0    0 +7.8223318630e-01 -1.8780224400e+01 -1.4048789200e+03 1.4050046578e+03 0.0000000000e+00 0.0000e+00 1.0000e+00
<mgrwt>
<rscale>  0 0.79325512E+02</rscale>
<asrwt>0</asrwt>
<pdfrwt beam="1">  1        1 0.16197814E-03 0.79325512E+02</pdfrwt>
<pdfrwt beam="2">  1       -2 0.22987018E+00 0.79325512E+02</pdfrwt>
<totfact> 0.15282015E+04</totfact>
</mgrwt>
</event>
<event>
 5      1 +7.5707000e+03 8.17191800e+01 7.54677100e-03 1.32424200e-01
       -2 -1    0    0    0  501 -0.0000000000e+00 +0.0000000000e+00 +1.1802543287e+02 1.1802543287e+02 0.0000000000e+00 0.0000e+00 1.0000e+00
        1 -1    0    0  501    0 +0.0000000000e+00 -0.0000000000e+00 -1.4145306969e+01 1.4145306969e+01 0.0000000000e+00 0.0000e+00 -1.0000e+00
      -24  2    1    2    0    0 +0.0000000000e+00 +0.0000000000e+00 +1.0388012590e+02 1.3217073984e+02 8.1719177138e+01 0.0000e+00 0.0000e+00
       13  1    3    3    0    0 +3.3449384637e+01 -8.1677384320e+00 +1.6360237098e+01 3.8121262330e+01 0.0000000000e+00 0.0000e+00 -1.0000e+00
      -14  1    3    3    0    0 -3.3449384637e+01 +8.1677384320e+00 +8.7519888800e+01 9.4049477506e+01 0.0000000000e+00 0.0000e+00 1.0000e+00
<mgrwt>
<rscale>  0 0.81719177E+02</rscale>
<asrwt>0</asrwt>
<pdfrwt beam="1">  1        1 0.21762012E-02 0.81719177E+02</pdfrwt>
<pdfrwt beam="2">  1       -2 0.18157758E-01 0.81719177E+02</pdfrwt>
<totfact> 0.96215480E+04</totfact>
</mgrwt>
</event>
<event>
 5      1 +7.5707000e+03 8.01538000e+01 7.54677100e-03 1.32861600e-01
        1 -1    0    0  501    0 +0.0000000000e+00 +0.0000000000e+00 +6.9384079187e+01 6.9384079187e+01 0.0000000000e+00 0.0000e+00 -1.0000e+00
       -2 -1    0    0    0  501 -0.0000000000e+00 -0.0000000000e+00 -2.3148795631e+01 2.3148795631e+01 0.0000000000e+00 0.0000e+00 1.0000e+00
      -24  2    1    2    0    0 +0.0000000000e+00 +0.0000000000e+00 +4.6235283556e+01 9.2532874819e+01 8.0153798891e+01 0.0000e+00 0.0000e+00
       13  1    3    3    0    0 -3.1531164256e+01 -2.1447424241e+01 +3.7348284070e+01 5.3376967400e+01 0.0000000000e+00 0.0000e+00 -1.0000e+00
      -14  1    3    3    0    0 +3.1531164256e+01 +2.1447424241e+01 +8.8869994859e+00 3.9155907418e+01 0.0000000000e+00 0.0000e+00 1.0000e+00
<mgrwt>
<rscale>  0 0.80153799E+02</rscale>
<asrwt>0</asrwt>
<pdfrwt beam="1">  1        1 0.10674474E-01 0.80153799E+02</pdfrwt>
<pdfrwt beam="2">  1       -2 0.35613532E-02 0.80153799E+02</pdfrwt>
<totfact> 0.13778567E+05</totfact>
</mgrwt>
</event>
<event>
 5      1 +7.5707000e+03 8.19194900e+01 7.54677100e-03 1.32369100e-01
       -4 -1    0    0    0  501 -0.0000000000e+00 +0.0000000000e+00 +2.7527847294e+02 2.7527847294e+02 0.0000000000e+00 0.0000e+00 1.0000e+00
        3 -1    0    0  501    0 +0.0000000000e+00 -0.0000000000e+00 -6.0945583967e+00 6.0945583967e+00 0.0000000000e+00 0.0000e+00 -1.0000e+00
      -24  2    1    2    0    0 +0.0000000000e+00 +0.0000000000e+00 +2.6918391454e+02 2.8137303133e+02 8.1919490444e+01 0.0000e+00 0.0000e+00
       13  1    3    3    0    0 +1.2758298745e+01 +3.8735931069e+01 +1.2153349474e+02 1.2819374745e+02 0.0000000000e+00 0.0000e+00 -1.0000e+00
      -14  1    3    3    0    0 -1.2758298745e+01 -3.8735931069e+01 +1.4765041980e+02 1.5317928388e+02 0.0000000000e+00 0.0000e+00 1.0000e+00
<mgrwt>
<rscale>  0 0.81919490E+02</rscale>
<asrwt>0</asrwt>
<pdfrwt beam="1">  1        3 0.93762458E-03 0.81919490E+02</pdfrwt>
<pdfrwt beam="2">  1       -4 0.42350525E-01 0.81919490E+02</pdfrwt>
<totfact> 0.26870624E+04</totfact>
</mgrwt>
</event>
<event>
 5      1 +7.5707000e+03 8.06292400e+01 7.54677100e-03 1.32727500e-01
       -4 -1    0    0    0  501 -0.0000000000e+00 +0.0000000000e+00 +5.1433710653e+01 5.1433710653e+01 0.0000000000e+00 0.0000e+00 1.0000e+00
        3 -1    0    0  501    0 +0.0000000000e+00 -0.0000000000e+00 -3.1599286760e+01 3.1599286760e+01 0.0000000000e+00 0.0000e+00 -1.0000e+00
      -24  2    1    2    0    0 +0.0000000000e+00 +0.0000000000e+00 +1.9834423893e+01 8.3032997413e+01 8.0629239660e+01 0.0000e+00 0.0000e+00
       11  1    3    3    0    0 +1.5368764132e+01 -3.0042939824e+01 -1.2796899252e+01 3.6090688199e+01 0.0000000000e+00 0.0000e+00 -1.0000e+00
      -12  1    3    3    0    0 -1.5368764132e+01 +3.0042939824e+01 +3.2631323144e+01 4.6942309214e+01 0.0000000000e+00 0.0000e+00 1.0000e+00
<mgrwt>
<rscale>  0 0.80629240E+02</rscale>
<asrwt>0</asrwt>
<pdfrwt beam="1">  1        3 0.48614287E-02 0.80629240E+02</pdfrwt>
<pdfrwt beam="2">  1       -4 0.79128786E-02 0.80629240E+02</pdfrwt>
<totfact> 0.43561235E+04</totfact>
</mgrwt>
</event>
<event>
 5      1 +7.5707000e+03 8.06335300e+01 7.54677100e-03 1.32726300e-01
        1 -1    0    0  501    0 +0.0000000000e+00 +0.0000000000e+00 +2.0085005233e+01 2.0085005233e+01 0.0000000000e+00 0.0000e+00 -1.0000e+00
       -2 -1    0    0    0  501 -0.0000000000e+00 -0.0000000000e+00 -8.0928104987e+01 8.0928104987e+01 0.0000000000e+00 0.0000e+00 1.0000e+00
      -24  2    1    2    0    0 +0.0000000000e+00 +0.0000000000e+00 -6.0843099754e+01 1.0101311022e+02 8.0633526828e+01 0.0000e+00 0.0000e+00
       11  1    3    3    0    0 -5.8145332388e+00 -1.9995123689e+01 +1.2826727604e+01 2.4456874477e+01 0.0000000000e+00 0.0000e+00 -1.0000e+00
      -12  1    3    3    0    0 +5.8145332388e+00 +1.9995123689e+01 -7.3669827359e+01 7.6556235743e+01 0.0000000000e+00 0.0000e+00 1.0000e+00
<mgrwt>
<rscale>  0 0.80633527E+02</rscale>
<asrwt>0</asrwt>
<pdfrwt beam="1">  1        1 0.30900008E-02 0.80633527E+02</pdfrwt>
<pdfrwt beam="2">  1       -2 0.12450478E-01 0.80633527E+02</pdfrwt>
<totfact> 0.10926174E+05</totfact>
</mgrwt>
</event>
<event>
 5      1 +7.5707000e+03 8.20774700e+01 7.54677100e-03 1.32325700e-01
       -4 -1    0    0    0  501 -0.0000000000e+00 +0.0000000000e+00 +1.9140625141e+02 1.9140625141e+02 0.0000000000e+00 0.0000e+00 1.0000e+00
        3 -1    0    0  501    0 +0.0000000000e+00 -0.0000000000e+00 -8.7989698400e+00 8.7989698400e+00 0.0000000000e+00 0.0000e+00 -1.0000e+00
      -24  2    1    2    0    0 +0.0000000000e+00 +0.0000000000e+00 +1.8260728157e+02 2.0020522125e+02 8.2077471533e+01 0.0000e+00 0.0000e+00
       11  1    3    3    0    0 +1.0430524413e+01 -2.7896461360e+00 -5.2723204551e+00 1.2015628493e+01 0.0000000000e+00 0.0000e+00 -1.0000e+00
      -12  1    3    3    0    0 -1.0430524413e+01 +2.7896461360e+00 +1.8787960202e+02 1.8818959275e+02 0.0000000000e+00 0.0000e+00 1.0000e+00
<mgrwt>
<rscale>  0 0.82077472E+02</rscale>
<asrwt>0</asrwt>
<pdfrwt beam="1">  1        3 0.13536878E-02 0.82077472E+02</pdfrwt>
<pdfrwt beam="2">  1       -4 0.29447112E-01 0.82077472E+02</pdfrwt>
<totfact> 0.31259395E+04</totfact>
</mgrwt>
</event>
<event>
 4      1 +7.5707000e+03 3.31578600e+01 7.54677100e-03 1.56559500e-01
        1 -1    0    0  501    0 +0.0000000000e+00 +0.0000000000e+00 +4.3704247044e+01 4.3704247044e+01 0.0000000000e+00 0.0000e+00 -1.0000e+00
       -2 -1    0    0    0  501 -0.0000000000e+00 -0.0000000000e+00 -6.2891135004e+00 6.2891135004e+00 0.0000000000e+00 0.0000e+00 1.0000e+00
       11  1    1    2    0    0 +1.6168962844e+01 -3.6490936241e+00 +1.8208129054e+01 2.4622900060e+01 0.0000000000e+00 0.0000e+00 -1.0000e+00
      -12  1    1    2    0    0 -1.6168962844e+01 +3.6490936241e+00 +1.9207004489e+01 2.5370460484e+01 0.0000000000e+00 0.0000e+00 1.0000e+00
<mgrwt>
<rscale>  0 0.33157863E+02</rscale>
<asrwt>0</asrwt>
<pdfrwt beam="1">  1        1 0.67237301E-02 0.33157863E+02</pdfrwt>
<pdfrwt beam="2">  1       -2 0.96755595E-03 0.33157863E+02</pdfrwt>
<totfact> 0.12721222E+06</totfact>
</mgrwt>
</event>
<event>
 5      1 +7.5707000e+03 7.87522500e+01 7.54677100e-03 1.33263000e-01
       -2 -1    0    0    0  501 -0.0000000000e+00 +0.0000000000e+00 +1.6223731821e+01 1.6223731821e+01 0.0000000000e+00 0.0000e+00 1.0000e+00
        1 -1    0    0  501    0 +0.0000000000e+00 -0.0000000000e+00 -9.5568586074e+01 9.5568586074e+01 0.0000000000e+00 0.0000e+00 -1.0000e+00
      -24  2    1    2    0    0 +0.0000000000e+00 +0.0000000000e+00 -7.9344854253e+01 1.1179231789e+02 7.8752247230e+01 0.0000e+00 0.0000e+00
       13  1    3    3    0    0 -1.1862675175e+01 +3.6565128606e+01 -5.1780019728e+01 6.4489550590e+01 0.0000000000e+00 0.0000e+00 -1.0000e+00
      -14  1    3    3    0    0 +1.1862675175e+01 -3.6565128606e+01 -2.7564834525e+01 4.7302767304e+01 0.0000000000e+00 0.0000e+00 1.0000e+00
<mgrwt>
<rscale>  0 0.78752247E+02</rscale>
<asrwt>0</asrwt>
<pdfrwt beam="1">  1        1 0.14702860E-01 0.78752247E+02</pdfrwt>
<pdfrwt beam="2">  1       -2 0.24959587E-02 0.78752247E+02</pdfrwt>
<totfact> 0.15221408E+05</totfact>
</mgrwt>
</event>
<event>
 5      1 +7.5707000e+03 7.74683800e+01 7.54677100e-03 1.33639300e-01
       -2 -1    0    0    0  501 -0.0000000000e+00 +0.0000000000e+00 +3.0287605155e+01 3.0287605155e+01 0.0000000000e+00 0.0000e+00 1.0000e+00
        1 -1    0    0  501    0 +0.0000000000e+00 -0.0000000000e+00 -4.9536352558e+01 4.9536352558e+01 0.0000000000e+00 0.0000e+00 -1.0000e+00
      -24  2    1    2    0    0 +0.0000000000e+00 +0.0000000000e+00 -1.9248747403e+01 7.9823957714e+01 7.7468380314e+01 0.0000e+00 0.0000e+00
       13  1    3    3    0    0 -1.5125241540e+00 +2.6186695917e+01 -3.8991997095e+01 4.6993686914e+01 0.0000000000e+00 0.0000e+00 -1.0000e+00
      -14  1    3    3    0    0 +1.5125241540e+00 -2.6186695917e+01 +1.9743249691e+01 3.2830270799e+01 0.0000000000e+00 0.0000e+00 1.0000e+00
<mgrwt>
<rscale>  0 0.77468380E+02</rscale>
<asrwt>0</asrwt>
<pdfrwt beam="1">  1        1 0.76209773E-02 0.77468380E+02</pdfrwt>
<pdfrwt beam="2">  1       -2 0.46596316E-02 0.77468380E+02</pdfrwt>
<totfact> 0.14364260E+05</totfact>
</mgrwt>
</event>
<event>
 5      1 +7.5707000e+03 8.13567200e+01 7.54677100e-03 1.32524500e-01
        3 -1    0    0  501    0 +0.0000000000e+00 +0.0000000000e+00 +2.2207254816e+01 2.2207254816e+01 0.0000000000e+00 0.0000e+00 -1.0000e+00
       -4 -1    0    0    0  501 -0.0000000000e+00 -0.0000000000e+00 -7.4512994079e+01 7.4512994079e+01 0.0000000000e+00 0.0000e+00 1.0000e+00
      -24  2    1    2    0    0 +0.0000000000e+00 +0.0000000000e+00 -5.2305739263e+01 9.6720248896e+01 8.1356721828e+01 0.0000e+00 0.0000e+00
       13  1    3    3    0    0 +1.8269212109e+01 +2.8119019207e+01 +1.2236931537e+00 3.3555041010e+01 0.0000000000e+00 0.0000e+00 -1.0000e+00
      -14  1    3    3    0    0 -1.8269212109e+01 -2.8119019207e+01 -5.3529432417e+01 6.3165207885e+01 0.0000000000e+00 0.0000e+00 1.0000e+00
<mgrwt>
<rscale>  0 0.81356722E+02</rscale>
<asrwt>0</asrwt>
<pdfrwt beam="1">  1        3 0.34165007E-02 0.81356722E+02</pdfrwt>
<pdfrwt beam="2">  1       -4 0.11463538E-01 0.81356722E+02</pdfrwt>
<totfact> 0.40761464E+04</totfact>
</mgrwt>
</event>
<event>
 5      1 +7.5707000e+03 8.08726300e+01 7.54677100e-03 1.32659300e-01
        3 -1    0    0  501    0 +0.0000000000e+00 +0.0000000000e+00 +3.7413856329e+01 3.7413856329e+01 0.0000000000e+00 0.0000e+00 -1.0000e+00
       -4 -1    0    0    0  501 -0.0000000000e+00 -0.0000000000e+00 -4.3702942896e+01 4.3702942896e+01 0.0000000000e+00 0.0000e+00 1.0000e+00
      -24  2    1    2    0    0 +0.0000000000e+00 +0.0000000000e+00 -6.2890865677e+00 8.1116799225e+01 8.0872631382e+01 0.0000e+00 0.0000e+00
       13  1    3    3    0    0 -3.3937015772e+01 +1.6050415671e+01 +1.1926090670e+01 3.9389954574e+01 0.0000000000e+00 0.0000e+00 -1.0000e+00
      -14  1    3    3    0    0 +3.3937015772e+01 -1.6050415671e+01 -1.8215177237e+01 4.1726844651e+01 0.0000000000e+00 0.0000e+00 1.0000e+00
<mgrwt>
<rscale>  0 0.80872631E+02</rscale>
<asrwt>0</asrwt>
<pdfrwt beam="1">  1        3 0.57559779E-02 0.80872631E+02</pdfrwt>
<pdfrwt beam="2">  1       -4 0.67235296E-02 0.80872631E+02</pdfrwt>
<totfact> 0.43615378E+04</totfact>
</mgrwt>
</event>
<event>
 5      1 +7.5707000e+03 7.39467600e+01 7.54677100e-03 1.34716400e-01
        1 -1    0    0  501    0 +0.0000000000e+00 +0.0000000000e+00 +1.7424078820e+02 1.7424078820e+02 0.0000000000e+00 0.0000e+00 -1.0000e+00
       -2 -1    0    0    0  501 -0.0000000000e+00 -0.0000000000e+00 -7.8456424825e+00 7.8456424825e+00 0.0000000000e+00 0.0000e+00 1.0000e+00
      -24  2    1    2    0    0 +0.0000000000e+00 +0.0000000000e+00 +1.6639514572e+02 1.8208643068e+02 7.3946762744e+01 0.0000e+00 0.0000e+00
       13  1    3    3    0    0 -2.2111509312e+01 -2.3306842329e+01 +1.2826036075e+02 1.3222272076e+02 0.0000000000e+00 0.0000e+00 -1.0000e+00
      -14  1    3    3    0    0 +2.2111509312e+01 +2.3306842329e+01 +3.8134784964e+01 4.9863709927e+01 0.0000000000e+00 0.0000e+00 1.0000e+00
<mgrwt>
<rscale>  0 0.73946763E+02</rscale>
<asrwt>0</asrwt>
<pdfrwt beam="1">  1        1 0.26806272E-01 0.73946763E+02</pdfrwt>
<pdfrwt beam="2">  1       -2 0.12070220E-02 0.73946763E+02</pdfrwt>
<totfact> 0.20001160E+05</totfact>
</mgrwt>
</event>
<event>
 4      1 +7.5707000e+03 4.27923300e+01 7.54677100e-03 1.48861400e-01
       -2 -1    0    0    0  501 -0.0000000000e+00 +0.0000000000e+00 +3.5484200757e+01 3.5484200757e+01 0.0000000000e+00 0.0000e+00 1.0000e+00
        1 -1    0    0  501    0 +0.0000000000e+00 -0.0000000000e+00 -1.2901398757e+01 1.2901398757e+01 0.0000000000e+00 0.0000e+00 -1.0000e+00
       11  1    1    2    0    0 -1.3518077704e+01 +4.8915798897e+00 -6.6270053788e+00 1.5829819295e+01 0.0000000000e+00 0.0000e+00 -1.0000e+00
      -12  1    1    2    0    0 +1.3518077704e+01 -4.8915798897e+00 +2.9209807379e+01 3.2555780220e+01 0.0000000000e+00 0.0000e+00 1.0000e+00
<mgrwt>
<rscale>  0 0.42792328E+02</rscale>
<asrwt>0</asrwt>
<pdfrwt beam="1">  1        1 0.19848306E-02 0.42792328E+02</pdfrwt>
<pdfrwt beam="2">  1       -2 0.54591078E-02 0.42792328E+02</pdfrwt>
<totfact> 0.60226867E+05</totfact>
</mgrwt>
</event>
<event>
 5      1 +7.5707000e+03 7.76037000e+01 7.54677100e-03 1.33599300e-01
        1 -1    0    0  501    0 +0.0000000000e+00 +0.0000000000e+00 +8.4197024844e+00 8.4197024844e+00 0.0000000000e+00 0.0000e+00 -1.0000e+00
       -2 -1    0    0    0  501 -0.0000000000e+00 -0.0000000000e+00 -1.7881673289e+02 1.7881673289e+02 0.0000000000e+00 0.0000e+00 1.0000e+00
      -24  2    1    2    0    0 +0.0000000000e+00 +0.0000000000e+00 -1.7039703040e+02 1.8723643537e+02 7.7603703266e+01 0.0000e+00 0.0000e+00
       11  1    3    3    0    0 -5.3213148084e+00 +2.1925388271e+01 -9.0333657569e+00 2.4303101428e+01 0.0000000000e+00 0.0000e+00 -1.0000e+00
      -12  1    3    3    0    0 +5.3213148084e+00 -2.1925388271e+01 -1.6136366465e+02 1.6293333394e+02 0.0000000000e+00 0.0000e+00 1.0000e+00
<mgrwt>
<rscale>  0 0.77603703E+02</rscale>
<asrwt>0</asrwt>
<pdfrwt beam="1">  1        1 0.12953390E-02 0.77603703E+02</pdfrwt>
<pdfrwt beam="2">  1       -2 0.27510263E-01 0.77603703E+02</pdfrwt>
<totfact> 0.96108346E+04</totfact>
</mgrwt>
</event>
<event>
 5      1 +7.5707000e+03 8.18866600e+01 7.54677100e-03 1.32378100e-01
        1 -1    0    0  501    0 +0.0000000000e+00 +0.0000000000e+00 +2.3894049444e+02 2.3894049444e+02 0.0000000000e+00 0.0000e+00 -1.0000e+00
       -2 -1    0    0    0  501 -0.0000000000e+00 -0.0000000000e+00 -7.0157893876e+00 7.0157893876e+00 0.0000000000e+00 0.0000e+00 1.0000e+00
      -24  2    1    2    0    0 +0.0000000000e+00 +0.0000000000e+00 +2.3192470506e+02 2.4595628383e+02 8.1886657892e+01 0.0000e+00 0.0000e+00
       13  1    3    3    0    0 -1.8579799857e+01 -3.4236068489e+01 +7.8083538602e+01 8.7260279331e+01 0.0000000000e+00 0.0000e+00 -1.0000e+00
      -14  1    3    3    0    0 +1.8579799857e+01 +3.4236068489e+01 +1.5384116645e+02 1.5869600450e+02 0.0000000000e+00 0.0000e+00 1.0000e+00
<mgrwt>
<rscale>  0 0.81886658E+02</rscale>
<asrwt>0</asrwt>
<pdfrwt beam="1">  1        1 0.36760070E-01 0.81886658E+02</pdfrwt>
<pdfrwt beam="2">  1       -2 0.10793524E-02 0.81886658E+02</pdfrwt>
<totfact> 0.16228469E+05</totfact>
</mgrwt>
</event>
<event>
 5      1 +7.5707000e+03 8.17574000e+01 7.54677100e-03 1.32413700e-01
       -4 -1    0    0    0  501 -0.0000000000e+00 +0.0000000000e+00 +5.9366475909e+01 5.9366475909e+01 0.0000000000e+00 0.0000e+00 1.0000e+00
        3 -1    0    0  501    0 +0.0000000000e+00 -0.0000000000e+00 -2.8148344294e+01 2.8148344294e+01 0.0000000000e+00 0.0000e+00 -1.0000e+00
      -24  2    1    2    0    0 +0.0000000000e+00 +0.0000000000e+00 +3.1218131615e+01 8.7514820202e+01 8.1757397301e+01 0.0000e+00 0.0000e+00
       13  1    3    3    0    0 +1.7916067911e+01 +9.0527976976e+00 -2.2509480280e+01 3.0159829874e+01 0.0000000000e+00 0.0000e+00 -1.0000e+00
      -14  1    3    3    0    0 -1.7916067911e+01 -9.0527976976e+00 +5.3727611895e+01 5.7354990328e+01 0.0000000000e+00 0.0000e+00 1.0000e+00
<mgrwt>
<rscale>  0 0.81757397E+02</rscale>
<asrwt>0</asrwt>
<pdfrwt beam="1">  1        3 0.43305145E-02 0.81757397E+02</pdfrwt>
<pdfrwt beam="2">  1       -4 0.91333040E-02 0.81757397E+02</pdfrwt>
<totfact> 0.41372661E+04</totfact>
</mgrwt>
</event>
<event>
 5      1 +7.5707000e+03 6.64749500e+01 7.54677100e-03 1.37250800e-01
       -4 -1    0    0    0  501 -0.0000000000e+00 +0.0000000000e+00 +7.7774561282e+01 7.7774561282e+01 0.0000000000e+00 0.0000e+00 1.0000e+00
        3 -1    0    0  501    0 +0.0000000000e+00 -0.0000000000e+00 -1.4204257463e+01 1.4204257463e+01 0.0000000000e+00 0.0000e+00 -1.0000e+00
      -24  2    1    2    0    0 +0.0000000000e+00 +0.0000000000e+00 +6.3570303819e+01 9.1978818745e+01 6.6474954457e+01 0.0000e+00 0.0000e+00
       13  1    3    3    0    0 +3.1983641470e+01 +6.3422425261e-01 +1.9303458997e+01 3.7362803579e+01 0.0000000000e+00 0.0000e+00 -1.0000e+00
      -14  1    3    3    0    0 -3.1983641470e+01 -6.3422425261e-01 +4.4266844823e+01 5.4616015166e+01 0.0000000000e+00 0.0000e+00 1.0000e+00
<mgrwt>
<rscale>  0 0.66474954E+02</rscale>
<asrwt>0</asrwt>
<pdfrwt beam="1">  1        3 0.21852704E-02 0.66474954E+02</pdfrwt>
<pdfrwt beam="2">  1       -4 0.11965317E-01 0.66474954E+02</pdfrwt>
<totfact> 0.69835200E+04</totfact>
</mgrwt>
</event>
<event>
 5      1 +7.5707000e+03 8.06860900e+01 7.54677100e-03 1.32711600e-01
       -2 -1    0    0    0  501 -0.0000000000e+00 +0.0000000000e+00 +1.2441908838e+01 1.2441908838e+01 0.0000000000e+00 0.0000e+00 1.0000e+00
        1 -1    0    0  501    0 +0.0000000000e+00 -0.0000000000e+00 -1.3081283399e+02 1.3081283399e+02 0.0000000000e+00 0.0000e+00 -1.0000e+00
      -24  2    1    2    0    0 +0.0000000000e+00 +0.0000000000e+00 -1.1837092515e+02 1.4325474283e+02 8.0686091869e+01 0.0000e+00 0.0000e+00
       11  1    3    3    0    0 +3.0934866967e+01 -2.1968902076e+01 -8.3526897114e+01 9.1740619107e+01 0.0000000000e+00 0.0000e+00 -1.0000e+00
      -12  1    3    3    0    0 -3.0934866967e+01 +2.1968902076e+01 -3.4844028037e+01 5.1514123719e+01 0.0000000000e+00 0.0000e+00 1.0000e+00
<mgrwt>
<rscale>  0 0.80686092E+02</rscale>
<asrwt>0</asrwt>
<pdfrwt beam="1">  1        1 0.20125053E-01 0.80686092E+02</pdfrwt>
<pdfrwt beam="2">  1       -2 0.19141397E-02 0.80686092E+02</pdfrwt>
<totfact> 0.15051462E+05</totfact>
</mgrwt>
</event>
<event>
 5      1 +7.5707000e+03 7.58634300e+01 7.54677100e-03 1.34121800e-01
        3 -1    0    0  501    0 +0.0000000000e+00 +0.0000000000e+00 +4.1029658528e+01 4.1029658528e+01 0.0000000000e+00 0.0000e+00 -1.0000e+00
       -4 -1    0    0    0  501 -0.0000000000e+00 -0.0000000000e+00 -3.5067677324e+01 3.5067677324e+01 0.0000000000e+00 0.0000e+00 1.0000e+00
      -24  2    1    2    0    0 +0.0000000000e+00 +0.0000000000e+00 +5.9619812048e+00 7.6097335852e+01 7.5863425337e+01 0.0000e+00 0.0000e+00
       11  1    3    3    0    0 -1.4538763787e+01 -1.3464893967e+01 +3.5424739968e+01 4.0590531209e+01 0.0000000000e+00 0.0000e+00 -1.0000e+00
      -12  1    3    3    0    0 +1.4538763787e+01 +1.3464893967e+01 -2.9462758763e+01 3.5506804643e+01 0.0000000000e+00 0.0000e+00 1.0000e+00
<mgrwt>
<rscale>  0 0.75863425E+02</rscale>
<asrwt>0</asrwt>
<pdfrwt beam="1">  1        3 0.63122551E-02 0.75863425E+02</pdfrwt>
<pdfrwt beam="2">  1       -4 0.53950273E-02 0.75863425E+02</pdfrwt>
<totfact> 0.52603423E+04</totfact>
</mgrwt>
</event>
<event>
 5      1 +7.5707000e+03 8.23213300e+01 7.54677100e-03 1.32259000e-01
        1 -1    0    0  501    0 +0.0000000000e+00 +0.0000000000e+00 +4.2053797077e+00 4.2053797077e+00 0.0000000000e+00 0.0000e+00 -1.0000e+00
       -2 -1    0    0    0  501 -0.0000000000e+00 -0.0000000000e+00 -4.0286505776e+02 4.0286505776e+02 0.0000000000e+00 0.0000e+00 1.0000e+00
      -24  2    1    2    0    0 +0.0000000000e+00 +0.0000000000e+00 -3.9865967805e+02 4.0707043747e+02 8.2321334752e+01 0.0000e+00 0.0000e+00
       11  1    3    3    0    0 -2.8959522051e+01 +8.0178881192e+00 -6.0233150314e+01 6.7312501395e+01 0.0000000000e+00 0.0000e+00 -1.0000e+00
      -12  1    3    3    0    0 +2.8959522051e+01 -8.0178881192e+00 -3.3842652774e+02 3.3975793607e+02 0.0000000000e+00 0.0000e+00 1.0000e+00
<mgrwt>
<rscale>  0 0.82321335E+02</rscale>
<asrwt>0</asrwt>
<pdfrwt beam="1">  1        1 0.64698165E-03 0.82321335E+02</pdfrwt>
<pdfrwt beam="2">  1       -2 0.61979225E-01 0.82321335E+02</pdfrwt>
<totfact> 0.54619168E+04</totfact>
</mgrwt>
</event>
<event>
 5      1 +7.5707000e+03 9.38665300e+01 7.54677100e-03 1.29375000e-01
       -4 -1    0    0    0  501 -0.0000000000e+00 +0.0000000000e+00 +8.8513736038e+01 8.8513736038e+01 0.0000000000e+00 0.0000e+00 1.0000e+00
        3 -1    0    0  501    0 +0.0000000000e+00 -0.0000000000e+00 -2.4885755490e+01 2.4885755490e+01 0.0000000000e+00 0.0000e+00 -1.0000e+00
      -24  2    1    2    0    0 +0.0000000000e+00 +0.0000000000e+00 +6.3627980549e+01 1.1339949153e+02 9.3866526356e+01 0.0000e+00 0.0000e+00
       13  1    3    3    0    0 -2.6009862367e+00 +4.6814977574e+01 +2.9301871998e+01 5.5290206703e+01 0.0000000000e+00 0.0000e+00 -1.0000e+00
      -14  1    3    3    0    0 +2.6009862367e+00 -4.6814977574e+01 +3.4326108550e+01 5.8109284825e+01 0.0000000000e+00 0.0000e+00 1.0000e+00
<mgrwt>
<rscale>  0 0.93866526E+02</rscale>
<asrwt>0</asrwt>
<pdfrwt beam="1">  1        3 0.38285778E-02 0.93866526E+02</pdfrwt>
<pdfrwt beam="2">  1       -4 0.13617498E-01 0.93866526E+02</pdfrwt>
<totfact> 0.26659296E+04</totfact>
</mgrwt>
</event>
<event>
 5      1 +7.5707000e+03 7.93814400e+01 7.54677100e-03 1.33081600e-01
        3 -1    0    0  501    0 +0.0000000000e+00 +0.0000000000e+00 +3.8150026153e+01 3.8150026153e+01 0.0000000000e+00 0.0000e+00 -1.0000e+00
       -4 -1    0    0    0  501 -0.0000000000e+00 -0.0000000000e+00 -4.1293633817e+01 4.1293633817e+01 0.0000000000e+00 0.0000e+00 1.0000e+00
      -24  2    1    2    0    0 +0.0000000000e+00 +0.0000000000e+00 -3.1436076645e+00 7.9443659970e+01 7.9381438890e+01 0.0000e+00 0.0000e+00
       13  1    3    3    0    0 +1.5167672221e+01 +9.1656924015e+00 +3.3970607990e+01 3.8315406889e+01 0.0000000000e+00 0.0000e+00 -1.0000e+00
      -14  1    3    3    0    0 -1.5167672221e+01 -9.1656924015e+00 -3.7114215655e+01 4.1128253081e+01 0.0000000000e+00 0.0000e+00 1.0000e+00
<mgrwt>
<rscale>  0 0.79381439E+02</rscale>
<asrwt>0</asrwt>
<pdfrwt beam="1">  1        3 0.58692348E-02 0.79381439E+02</pdfrwt>
<pdfrwt beam="2">  1       -4 0.63528667E-02 0.79381439E+02</pdfrwt>
<totfact> 0.46079348E+04</totfact>
</mgrwt>
</event>
<event>
 5      1 +7.5707000e+03 7.98681500e+01 7.54677100e-03 1.32942600e-01
       -2 -1    0    0    0  501 -0.0000000000e+00 +0.0000000000e+00 +1.4035549183e+02 1.4035549183e+02 0.0000000000e+00 0.0000e+00 1.0000e+00
        1 -1    0    0  501    0 +0.0000000000e+00 -0.0000000000e+00 -1.1362080893e+01 1.1362080893e+01 0.0000000000e+00 0.0000e+00 -1.0000e+00
      -24  2    1    2    0    0 +0.0000000000e+00 +0.0000000000e+00 +1.2899341094e+02 1.5171757272e+02 7.9868152649e+01 0.0000e+00 0.0000e+00
       11  1    3    3    0    0 -1.3027221117e+01 +2.3476203686e+01 +8.3414267236e+00 2.8114409639e+01 0.0000000000e+00 0.0000e+00 -1.0000e+00
      -12  1    3    3    0    0 +1.3027221117e+01 -2.3476203686e+01 +1.2065198421e+02 1.2360316308e+02 0.0000000000e+00 0.0000e+00 1.0000e+00
<mgrwt>
<rscale>  0 0.79868153E+02</rscale>
<asrwt>0</asrwt>
<pdfrwt beam="1">  1        1 0.17480125E-02 0.79868153E+02</pdfrwt>
<pdfrwt beam="2">  1       -2 0.21593151E-01 0.79868153E+02</pdfrwt>
<totfact> 0.96958437E+04</totfact>
</mgrwt>
</event>
<event>
 5      1 +7.5707000e+03 8.13783500e+01 7.54677100e-03 1.32518500e-01
       -2 -1    0    0    0  501 -0.0000000000e+00 +0.0000000000e+00 +9.9924192406e+00 9.9924192406e+00 0.0000000000e+00 0.0000e+00 1.0000e+00
        1 -1    0    0  501    0 +0.0000000000e+00 -0.0000000000e+00 -1.6568651818e+02 1.6568651818e+02 0.0000000000e+00 0.0000e+00 -1.0000e+00
      -24  2    1    2    0    0 +0.0000000000e+00 +0.0000000000e+00 -1.5569409894e+02 1.7567893742e+02 8.1378354668e+01 0.0000e+00 0.0000e+00
       13  1    3    3    0    0 +1.3188602363e+01 +2.7691499583e+01 -1.3556600797e+02 1.3899244907e+02 0.0000000000e+00 0.0000e+00 -1.0000e+00
      -14  1    3    3    0    0 -1.3188602363e+01 -2.7691499583e+01 -2.0128090969e+01 3.6686488351e+01 0.0000000000e+00 0.0000e+00 1.0000e+00
<mgrwt>
<rscale>  0 0.81378355E+02</rscale>
<asrwt>0</asrwt>
<pdfrwt beam="1">  1        1 0.25490233E-01 0.81378355E+02</pdfrwt>
<pdfrwt beam="2">  1       -2 0.15372953E-02 0.81378355E+02</pdfrwt>
<totfact> 0.15367018E+05</totfact>
</mgrwt>
</event>
<event>
 5      1 +7.5707000e+03 8.16162800e+01 7.54677100e-03 1.32452600e-01
        1 -1    0    0  501    0 +0.0000000000e+00 +0.0000000000e+00 +2.0257715541e+02 2.0257715541e+02 0.0000000000e+00 0.0000e+00 -1.0000e+00
       -2 -1    0    0    0  501 -0.0000000000e+00 -0.0000000000e+00 -8.2205919772e+00 8.2205919772e+00 0.0000000000e+00 0.0000e+00 1.0000e+00
      -24  2    1    2    0    0 +0.0000000000e+00 +0.0000000000e+00 +1.9435656344e+02 2.1079774739e+02 8.1616276282e+01 0.0000e+00 0.0000e+00
       13  1    3    3    0    0 -9.9163414589e+00 +3.4886629139e+01 +1.4549051078e+02 1.4994298732e+02 0.0000000000e+00 0.0000e+00 -1.0000e+00
      -14  1    3    3    0    0 +9.9163414589e+00 -3.4886629139e+01 +4.8866052659e+01 6.0854760069e+01 0.0000000000e+00 0.0000e+00 1.0000e+00
<mgrwt>
<rscale>  0 0.81616276E+02</rscale>
<asrwt>0</asrwt>
<pdfrwt beam="1">  1        1 0.31165712E-01 0.81616276E+02</pdfrwt>
<pdfrwt beam="2">  1       -2 0.12647066E-02 0.81616276E+02</pdfrwt>
<totfact> 0.15850177E+05</totfact>
</mgrwt>
</event>
<event>
 5      1 +7.5707000e+03 7.85709600e+01 7.54677100e-03 1.33315600e-01
        3 -1    0    0  501    0 +0.0000000000e+00 +0.0000000000e+00 +1.0058116085e+01 1.0058116085e+01 0.0000000000e+00 0.0000e+00 -1.0000e+00
       -4 -1    0    0    0  501 -0.0000000000e+00 -0.0000000000e+00 -1.5344316191e+02 1.5344316191e+02 0.0000000000e+00 0.0000e+00 1.0000e+00
      -24  2    1    2    0    0 +0.0000000000e+00 +0.0000000000e+00 -1.4338504583e+02 1.6350127800e+02 7.8570964994e+01 0.0000e+00 0.0000e+00
       11  1    3    3    0    0 -6.4924469185e+00 +2.1616366974e+01 -4.7804288308e+00 2.3071014020e+01 0.0000000000e+00 0.0000e+00 -1.0000e+00
      -12  1    3    3    0    0 +6.4924469185e+00 -2.1616366974e+01 -1.3860461700e+02 1.4043026398e+02 0.0000000000e+00 0.0000e+00 1.0000e+00
<mgrwt>
<rscale>  0 0.78570965E+02</rscale>
<asrwt>0</asrwt>
<pdfrwt beam="1">  1        3 0.15474026E-02 0.78570965E+02</pdfrwt>
<pdfrwt beam="2">  1       -4 0.23606639E-01 0.78570965E+02</pdfrwt>
<totfact> 0.37916423E+04</totfact>
</mgrwt>
</event>
<event>
 5      1 +7.5707000e+03 8.05109300e+01 7.54677100e-03 1.32760800e-01
        1 -1    0    0  501    0 +0.0000000000e+00 +0.0000000000e+00 +1.0884184840e+01 1.0884184840e+01 0.0000000000e+00 0.0000e+00 -1.0000e+00
       -2 -1    0    0    0  501 -0.0000000000e+00 -0.0000000000e+00 -1.4888599248e+02 1.4888599248e+02 0.0000000000e+00 0.0000e+00 1.0000e+00
      -24  2    1    2    0    0 +0.0000000000e+00 +0.0000000000e+00 -1.3800180764e+02 1.5977017732e+02 8.0510934967e+01 0.0000e+00 0.0000e+00
       11  1    3    3    0    0 -2.2148956788e+01 +3.3602016046e+01 -7.0809799193e+01 8.1447525628e+01 0.0000000000e+00 0.0000e+00 -1.0000e+00
      -12  1    3    3    0    0 +2.2148956788e+01 -3.3602016046e+01 -6.7192008450e+01 7.8322651696e+01 0.0000000000e+00 0.0000e+00 1.0000e+00
<mgrwt>
<rscale>  0 0.80510935E+02</rscale>
<asrwt>0</asrwt>
<pdfrwt beam="1">  1        1 0.16744901E-02 0.80510935E+02</pdfrwt>
<pdfrwt beam="2">  1       -2 0.22905536E-01 0.80510935E+02</pdfrwt>
<totfact> 0.93201650E+04</totfact>
</mgrwt>
</event>
<event>
 5      1 +7.5707000e+03 9.35198500e+01 7.54677100e-03 1.29454500e-01
       -2 -1    0    0    0  501 -0.0000000000e+00 +0.0000000000e+00 +1.8635436355e+02 1.8635436355e+02 0.0000000000e+00 0.0000e+00 1.0000e+00
        1 -1    0    0  501    0 +0.0000000000e+00 -0.0000000000e+00 -1.1732973276e+01 1.1732973276e+01 0.0000000000e+00 0.0000e+00 -1.0000e+00
      -24  2    1    2    0    0 +0.0000000000e+00 +0.0000000000e+00 +1.7462139027e+02 1.9808733683e+02 9.3519853880e+01 0.0000e+00 0.0000e+00
       13  1    3    3    0    0 -4.5613296386e+01 -6.5720768592e+00 +7.0535179421e+01 8.4255424380e+01 0.0000000000e+00 0.0000e+00 -1.0000e+00
      -14  1    3    3    0    0 +4.5613296386e+01 +6.5720768592e+00 +1.0408621085e+02 1.1383191244e+02 0.0000000000e+00 0.0000e+00 1.0000e+00
<mgrwt>
<rscale>  0 0.93519854E+02</rscale>
<asrwt>0</asrwt>
<pdfrwt beam="1">  1        1 0.18050729E-02 0.93519854E+02</pdfrwt>
<pdfrwt beam="2">  1       -2 0.28669900E-01 0.93519854E+02</pdfrwt>
<totfact> 0.58379832E+04</totfact>
</mgrwt>
</event>
<event>
 5      1 +7.5707000e+03 7.99444800e+01 7.54677100e-03 1.32920900e-01
        3 -1    0    0  501    0 +0.0000000000e+00 +0.0000000000e+00 +1.1413291807e+02 1.1413291807e+02 0.0000000000e+00 0.0000e+00 -1.0000e+00
       -4 -1    0    0    0  501 -0.0000000000e+00 -0.0000000000e+00 -1.3999291955e+01 1.3999291955e+01 0.0000000000e+00 0.0000e+00 1.0000e+00
      -24  2    1    2    0    0 +0.0000000000e+00 +0.0000000000e+00 +1.0013362611e+02 1.2813221002e+02 7.9944481778e+01 0.0000e+00 0.0000e+00
       11  1    3    3    0    0 +2.0283800598e+01 -3.4173109536e+01 +5.6969141979e+01 6.9460183701e+01 0.0000000000e+00 0.0000e+00 -1.0000e+00
      -12  1    3    3    0    0 -2.0283800598e+01 +3.4173109536e+01 +4.3164484132e+01 5.8672026319e+01 0.0000000000e+00 0.0000e+00 1.0000e+00
<mgrwt>
<rscale>  0 0.79944482E+02</rscale>
<asrwt>0</asrwt>
<pdfrwt beam="1">  1        3 0.17558910E-01 0.79944482E+02</pdfrwt>
<pdfrwt beam="2">  1       -4 0.21537373E-02 0.79944482E+02</pdfrwt>
<totfact> 0.41743963E+04</totfact>
</mgrwt>
</event>
<event>
 5      1 +7.5707000e+03 7.98726300e+01 7.54677100e-03 1.32941300e-01
        3 -1    0    0  501    0 +0.0000000000e+00 +0.0000000000e+00 +3.9536331097e+00 3.9536331097e+00 0.0000000000e+00 0.0000e+00 -1.0000e+00
       -4 -1    0    0    0  501 -0.0000000000e+00 -0.0000000000e+00 -4.0340343741e+02 4.0340343741e+02 0.0000000000e+00 0.0000e+00 1.0000e+00
      -24  2    1    2    0    0 +0.0000000000e+00 +0.0000000000e+00 -3.9944980430e+02 4.0735707052e+02 7.9872628270e+01 0.0000e+00 0.0000e+00
       11  1    3    3    0    0 -2.0318318794e+01 +3.3865457196e+01 -1.6946377409e+02 1.7400481027e+02 0.0000000000e+00 0.0000e+00 -1.0000e+00
      -12  1    3    3    0    0 +2.0318318794e+01 -3.3865457196e+01 -2.2998603021e+02 2.3335226024e+02 0.0000000000e+00 0.0000e+00 1.0000e+00
<mgrwt>
<rscale>  0 0.79872628E+02</rscale>
<asrwt>0</asrwt>
<pdfrwt beam="1">  1        3 0.60825169E-03 0.79872628E+02</pdfrwt>
<pdfrwt beam="2">  1       -4 0.62062023E-01 0.79872628E+02</pdfrwt>
<totfact> 0.23224319E+04</totfact>
</mgrwt>
</event>
<event>
 5      1 +7.5707000e+03 8.05438100e+01 7.54677100e-03 1.32751500e-01
       -4 -1    0    0    0  501 -0.0000000000e+00 +0.0000000000e+00 +1.8277713494e+01 1.8277713494e+01 0.0000000000e+00 0.0000e+00 1.0000e+00
        3 -1    0    0  501    0 +0.0000000000e+00 -0.0000000000e+00 -8.8732449619e+01 8.8732449619e+01 0.0000000000e+00 0.0000e+00 -1.0000e+00
      -24  2    1    2    0    0 +0.0000000000e+00 +0.0000000000e+00 -7.0454736124e+01 1.0701016311e+02 8.0543808993e+01 0.0000e+00 0.0000e+00
       11  1    3    3    0    0 +3.3262542180e+01 -9.8202595795e+00 -6.2422788018e+01 7.1410354112e+01 0.0000000000e+00 0.0000e+00 -1.0000e+00
      -12  1    3    3    0    0 -3.3262542180e+01 +9.8202595795e+00 -8.0319481068e+00 3.5599809001e+01 0.0000000000e+00 0.0000e+00 1.0000e+00
<mgrwt>
<rscale>  0 0.80543809E+02</rscale>
<asrwt>0</asrwt>
<pdfrwt beam="1">  1        3 0.13651146E-01 0.80543809E+02</pdfrwt>
<pdfrwt beam="2">  1       -4 0.28119559E-02 0.80543809E+02</pdfrwt>
<totfact> 0.42561150E+04</totfact>
</mgrwt>
</event>
<event>
 5      1 +7.5707000e+03 8.71849700e+01 7.54677100e-03 1.30981600e-01
        3 -1    0    0  501    0 +0.0000000000e+00 +0.0000000000e+00 +9.7950108058e+01 9.7950108058e+01 0.0000000000e+00 0.0000e+00 -1.0000e+00
       -4 -1    0    0    0  501 -0.0000000000e+00 -0.0000000000e+00 -1.9400741514e+01 1.9400741514e+01 0.0000000000e+00 0.0000e+00 1.0000e+00
      -24  2    1    2    0    0 +0.0000000000e+00 +0.0000000000e+00 +7.8549366543e+01 1.1735084957e+02 8.7184969524e+01 0.0000e+00 0.0000e+00
       11  1    3    3    0    0 -3.8089737775e+01 -1.7078563128e+01 +5.6182873846e+01 6.9993005049e+01 0.0000000000e+00 0.0000e+00 -1.0000e+00
      -12  1    3    3    0    0 +3.8089737775e+01 +1.7078563128e+01 +2.2366492698e+01 4.7357844523e+01 0.0000000000e+00 0.0000e+00 1.0000e+00
<mgrwt>
<rscale>  0 0.87184970E+02</rscale>
<asrwt>0</asrwt>
<pdfrwt beam="1">  1        3 0.15069247E-01 0.87184970E+02</pdfrwt>
<pdfrwt beam="2">  1       -4 0.29847295E-02 0.87184970E+02</pdfrwt>
<totfact> 0.33677603E+04</totfact>
</mgrwt>
</event>
<event>
 5      1 +7.5707000e+03 8.19319600e+01 7.54677100e-03 1.32365700e-01
        1 -1    0    0  501    0 +0.0000000000e+00 +0.0000000000e+00 +4.1750450423e+02 4.1750450423e+02 0.0000000000e+00 0.0000e+00 -1.0000e+00
       -2 -1    0    0    0  501 -0.0000000000e+00 -0.0000000000e+00 -4.0196252449e+00 4.0196252449e+00 0.0000000000e+00 0.0000e+00 1.0000e+00
      -24  2    1    2    0    0 +0.0000000000e+00 +0.0000000000e+00 +4.1348487899e+02 4.2152412948e+02 8.1931963117e+01 0.0000e+00 0.0000e+00
       11  1    3    3    0    0 -1.7740570661e+01 +3.4675366131e+01 +1.4144132424e+02 1.4670636341e+02 0.0000000000e+00 0.0000e+00 -1.0000e+00
      -12  1    3    3    0    0 +1.7740570661e+01 -3.4675366131e+01 +2.7204355475e+02 2.7481776606e+02 0.0000000000e+00 0.0000e+00 1.0000e+00
<mgrwt>
<rscale>  0 0.81931963E+02</rscale>
<asrwt>0</asrwt>
<pdfrwt beam="1">  1        1 0.64231428E-01 0.81931963E+02</pdfrwt>
<pdfrwt beam="2">  1       -2 0.61840421E-03 0.81931963E+02</pdfrwt>
<totfact> 0.17961652E+05</totfact>
</mgrwt>
</event>
<event>
 5      1 +7.5707000e+03 8.09158100e+01 7.54677100e-03 1.32647200e-01
        1 -1    0    0  501    0 +0.0000000000e+00 +0.0000000000e+00 +1.1759711012e+02 1.1759711012e+02 0.0000000000e+00 0.0000e+00 -1.0000e+00
       -2 -1    0    0    0  501 -0.0000000000e+00 -0.0000000000e+00 -1.3919065743e+01 1.3919065743e+01 0.0000000000e+00 0.0000e+00 1.0000e+00
      -24  2    1    2    0    0 +0.0000000000e+00 +0.0000000000e+00 +1.0367804438e+02 1.3151617587e+02 8.0915805799e+01 0.0000e+00 0.0000e+00
       11  1    3    3    0    0 +3.2732411009e+01 +1.6197799687e+01 +8.0134164481e+01 8.8063975394e+01 0.0000000000e+00 0.0000e+00 -1.0000e+00
      -12  1    3    3    0    0 -3.2732411009e+01 -1.6197799687e+01 +2.3543879898e+01 4.3452200472e+01 0.0000000000e+00 0.0000e+00 1.0000e+00
<mgrwt>
<rscale>  0 0.80915806E+02</rscale>
<asrwt>0</asrwt>
<pdfrwt beam="1">  1        1 0.18091862E-01 0.80915806E+02</pdfrwt>
<pdfrwt beam="2">  1       -2 0.21413948E-02 0.80915806E+02</pdfrwt>
<totfact> 0.14656899E+05</totfact>
</mgrwt>
</event>
<event>
 5      1 +7.5707000e+03 8.03904600e+01 7.54677100e-03 1.32794700e-01
       -4 -1    0    0    0  501 -0.0000000000e+00 +0.0000000000e+00 +4.2829090005e+01 4.2829090005e+01 0.0000000000e+00 0.0000e+00 1.0000e+00
        3 -1    0    0  501    0 +0.0000000000e+00 -0.0000000000e+00 -3.7723343565e+01 3.7723343565e+01 0.0000000000e+00 0.0000e+00 -1.0000e+00
      -24  2    1    2    0    0 +0.0000000000e+00 +0.0000000000e+00 +5.1057464397e+00 8.0552433570e+01 8.0390459057e+01 0.0000e+00 0.0000e+00
       11  1    3    3    0    0 +1.6554607565e+01 +2.6997988510e+01 -2.2249981125e+01 3.8704109281e+01 0.0000000000e+00 0.0000e+00 -1.0000e+00
      -12  1    3    3    0    0 -1.6554607565e+01 -2.6997988510e+01 +2.7355727565e+01 4.1848324289e+01 0.0000000000e+00 0.0000e+00 1.0000e+00
<mgrwt>
<rscale>  0 0.80390459E+02</rscale>
<asrwt>0</asrwt>
<pdfrwt beam="1">  1        3 0.58035913E-02 0.80390459E+02</pdfrwt>
<pdfrwt beam="2">  1       -4 0.65890908E-02 0.80390459E+02</pdfrwt>
<totfact> 0.44398113E+04</totfact>
</mgrwt>
</event>
<event>
 5      1 +7.5707000e+03 8.08966200e+01 7.54677100e-03 1.32652600e-01
       -2 -1    0    0    0  501 -0.0000000000e+00 +0.0000000000e+00 +9.4254777992e+00 9.4254777992e+00 0.0000000000e+00 0.0000e+00 1.0000e+00
        1 -1    0    0  501    0 +0.0000000000e+00 -0.0000000000e+00 -1.7357906998e+02 1.7357906998e+02 0.0000000000e+00 0.0000e+00 -1.0000e+00
      -24  2    1    2    0    0 +0.0000000000e+00 +0.0000000000e+00 -1.6415359218e+02 1.8300454778e+02 8.0896617248e+01 0.0000e+00 0.0000e+00
       11  1    3    3    0    0 -3.5934693375e+01 -1.8047608815e+01 -7.2203817030e+01 8.2646291905e+01 0.0000000000e+00 0.0000e+00 -1.0000e+00
      -12  1    3    3    0    0 +3.5934693375e+01 +1.8047608815e+01 -9.1949775154e+01 1.0035825588e+02 0.0000000000e+00 0.0000e+00 1.0000e+00
<mgrwt>
<rscale>  0 0.80896617E+02</rscale>
<asrwt>0</asrwt>
<pdfrwt beam="1">  1        1 0.26704472E-01 0.80896617E+02</pdfrwt>
<pdfrwt beam="2">  1       -2 0.14500735E-02 0.80896617E+02</pdfrwt>
<totfact> 0.15750848E+05</totfact>
</mgrwt>
</event>
<event>
 5      1 +7.5707000e+03 8.13227400e+01 7.54677100e-03 1.32533900e-01
        1 -1    0    0  501    0 +0.0000000000e+00 +0.0000000000e+00 +1.0635849278e+02 1.0635849278e+02 0.0000000000e+00 0.0000e+00 -1.0000e+00
       -2 -1    0    0    0  501 -0.0000000000e+00 -0.0000000000e+00 -1.5545039603e+01 1.5545039603e+01 0.0000000000e+00 0.0000e+00 1.0000e+00
      -24  2    1    2    0    0 +0.0000000000e+00 +0.0000000000e+00 +9.0813453173e+01 1.2190353238e+02 8.1322739314e+01 0.0000e+00 0.0000e+00
       13  1    3    3    0    0 +3.6598046462e+01 -1.4881289098e+01 +5.9821959234e+01 7.1690561280e+01 0.0000000000e+00 0.0000e+00 -1.0000e+00
      -14  1    3    3    0    0 -3.6598046462e+01 +1.4881289098e+01 +3.0991493939e+01 5.0212971099e+01 0.0000000000e+00 0.0000e+00 1.0000e+00
<mgrwt>
<rscale>  0 0.81322739E+02</rscale>
<asrwt>0</asrwt>
<pdfrwt beam="1">  1        1 0.16362845E-01 0.81322739E+02</pdfrwt>
<pdfrwt beam="2">  1       -2 0.23915446E-02 0.81322739E+02</pdfrwt>
<totfact> 0.14209958E+05</totfact>
</mgrwt>
</event>
<event>
 5      1 +7.5707000e+03 8.40653300e+01 7.54677100e-03 1.31789500e-01
       -2 -1    0    0    0  501 -0.0000000000e+00 +0.0000000000e+00 +1.3178775531e+01 1.3178775531e+01 0.0000000000e+00 0.0000e+00 1.0000e+00
        1 -1    0    0  501    0 +0.0000000000e+00 -0.0000000000e+00 -1.3405985705e+02 1.3405985705e+02 0.0000000000e+00 0.0000e+00 -1.0000e+00
      -24  2    1    2    0    0 +0.0000000000e+00 +0.0000000000e+00 -1.2088108152e+02 1.4723863258e+02 8.4065326118e+01 0.0000e+00 0.0000e+00
       13  1    3    3    0    0 -4.1876574848e+01 -2.3202854191e+00 -6.5304961513e+01 7.7612945077e+01 0.0000000000e+00 0.0000e+00 -1.0000e+00
      -14  1    3    3    0    0 +4.1876574848e+01 +2.3202854191e+00 -5.5576120007e+01 6.9625687505e+01 0.0000000000e+00 0.0000e+00 1.0000e+00
<mgrwt>
<rscale>  0 0.84065326E+02</rscale>
<asrwt>0</asrwt>
<pdfrwt beam="1">  1        1 0.20624593E-01 0.84065326E+02</pdfrwt>
<pdfrwt beam="2">  1       -2 0.20275040E-02 0.84065326E+02</pdfrwt>
<totfact> 0.13538877E+05</totfact>
</mgrwt>
</event>
<event>
 5      1 +7.5707000e+03 9.67309600e+01 7.54677100e-03 1.28732400e-01
       -2 -1    0    0    0  501 -0.0000000000e+00 +0.0000000000e+00 +6.6588802412e+02 6.6588802412e+02 0.0000000000e+00 0.0000e+00 1.0000e+00
        1 -1    0    0  501    0 +0.0000000000e+00 -0.0000000000e+00 -3.5129321340e+00 3.5129321340e+00 0.0000000000e+00 0.0000e+00 -1.0000e+00
      -24  2    1    2    0    0 +0.0000000000e+00 +0.0000000000e+00 +6.6237509199e+02 6.6940095625e+02 9.6730955492e+01 0.0000e+00 0.0000e+00
       13  1    3    3    0    0 -8.2379267136e+00 +2.1864122253e+01 +3.8132447410e+01 4.4721212237e+01 0.0000000000e+00 0.0000e+00 -1.0000e+00
      -14  1    3    3    0    0 +8.2379267136e+00 -2.1864122253e+01 +6.2424264458e+02 6.2467974402e+02 0.0000000000e+00 0.0000e+00 1.0000e+00
<mgrwt>
<rscale>  0 0.96730955E+02</rscale>
<asrwt>0</asrwt>
<pdfrwt beam="1">  1        1 0.54045163E-03 0.96730955E+02</pdfrwt>
<pdfrwt beam="2">  1       -2 0.10244421E+00 0.96730955E+02</pdfrwt>
<totfact> 0.24180726E+04</totfact>
</mgrwt>
</event>
<event>
 5      1 +7.5707000e+03 8.11649100e+01 7.54677100e-03 1.32577800e-01
        1 -1    0    0  501    0 +0.0000000000e+00 +0.0000000000e+00 +1.5810632647e+01 1.5810632647e+01 0.0000000000e+00 0.0000e+00 -1.0000e+00
       -2 -1    0    0    0  501 -0.0000000000e+00 -0.0000000000e+00 -1.0416633843e+02 1.0416633843e+02 0.0000000000e+00 0.0000e+00 1.0000e+00
      -24  2    1    2    0    0 +0.0000000000e+00 +0.0000000000e+00 -8.8355705786e+01 1.1997697108e+02 8.1164911414e+01 0.0000e+00 0.0000e+00
       13  1    3    3    0    0 +3.0693625880e+00 +2.5409059472e+01 +2.3767148340e+00 2.5703891989e+01 0.0000000000e+00 0.0000e+00 -1.0000e+00
      -14  1    3    3    0    0 -3.0693625880e+00 -2.5409059472e+01 -9.0732420620e+01 9.4273079092e+01 0.0000000000e+00 0.0000e+00 1.0000e+00
<mgrwt>
<rscale>  0 0.81164911E+02</rscale>
<asrwt>0</asrwt>
<pdfrwt beam="1">  1        1 0.24324049E-02 0.81164911E+02</pdfrwt>
<pdfrwt beam="2">  1       -2 0.16025591E-01 0.81164911E+02</pdfrwt>
<totfact> 0.10122402E+05</totfact>
</mgrwt>
</event>
<event>
 5      1 +7.5707000e+03 8.09617100e+01 7.54677100e-03 1.32634400e-01
        1 -1    0    0  501    0 +0.0000000000e+00 +0.0000000000e+00 +7.5411170749e+00 7.5411170749e+00 0.0000000000e+00 0.0000e+00 -1.0000e+00
       -2 -1    0    0    0  501 -0.0000000000e+00 -0.0000000000e+00 -2.1730195958e+02 2.1730195958e+02 0.0000000000e+00 0.0000e+00 1.0000e+00
      -24  2    1    2    0    0 +0.0000000000e+00 +0.0000000000e+00 -2.0976084250e+02 2.2484307665e+02 8.0961707438e+01 0.0000e+00 0.0000e+00
       11  1    3    3    0    0 +3.4152916275e+00 +2.9812904636e+01 -2.9424290010e+01 4.2026924017e+01 0.0000000000e+00 0.0000e+00 -1.0000e+00
      -12  1    3    3    0    0 -3.4152916275e+00 -2.9812904636e+01 -1.8033655249e+02 1.8281615264e+02 0.0000000000e+00 0.0000e+00 1.0000e+00
<mgrwt>
<rscale>  0 0.80961707E+02</rscale>
<asrwt>0</asrwt>
<pdfrwt beam="1">  1        1 0.11601718E-02 0.80961707E+02</pdfrwt>
<pdfrwt beam="2">  1       -2 0.33431072E-01 0.80961707E+02</pdfrwt>
<totfact> 0.79678858E+04</totfact>
</mgrwt>
</event>
<event>
 5      1 +7.5707000e+03 8.05909600e+01 7.54677100e-03 1.32738300e-01
       -2 -1    0    0    0  501 -0.0000000000e+00 +0.0000000000e+00 +6.9402023553e+00 6.9402023553e+00 0.0000000000e+00 0.0000e+00 1.0000e+00
        1 -1    0    0  501    0 +0.0000000000e+00 -0.0000000000e+00 -2.3395941525e+02 2.3395941525e+02 0.0000000000e+00 0.0000e+00 -1.0000e+00
      -24  2    1    2    0    0 +0.0000000000e+00 +0.0000000000e+00 -2.2701921289e+02 2.4089961761e+02 8.0590959412e+01 0.0000e+00 0.0000e+00
       13  1    3    3    0    0 +2.7587854790e+01 -2.5065012153e+01 -6.7746963765e+01 7.7323965661e+01 0.0000000000e+00 0.0000e+00 -1.0000e+00
      -14  1    3    3    0    0 -2.7587854790e+01 +2.5065012153e+01 -1.5927224913e+02 1.6357565194e+02 0.0000000000e+00 0.0000e+00 1.0000e+00
<mgrwt>
<rscale>  0 0.80590959E+02</rscale>
<asrwt>0</asrwt>
<pdfrwt beam="1">  1        1 0.35993751E-01 0.80590959E+02</pdfrwt>
<pdfrwt beam="2">  1       -2 0.10677236E-02 0.80590959E+02</pdfrwt>
<totfact> 0.16859668E+05</totfact>
</mgrwt>
</event>
<event>
 5      1 +7.5707000e+03 8.12383500e+01 7.54677100e-03 1.32557300e-01
        1 -1    0    0  501    0 +0.0000000000e+00 +0.0000000000e+00 +2.5248160887e+02 2.5248160887e+02 0.0000000000e+00 0.0000e+00 -1.0000e+00
       -2 -1    0    0    0  501 -0.0000000000e+00 -0.0000000000e+00 -6.5348027900e+00 6.5348027900e+00 0.0000000000e+00 0.0000e+00 1.0000e+00
      -24  2    1    2    0    0 +0.0000000000e+00 +0.0000000000e+00 +2.4594680608e+02 2.5901641166e+02 8.1238353554e+01 0.0000e+00 0.0000e+00
       11  1    3    3    0    0 +2.1501506950e+01 +2.8547946991e+01 +6.1427696690e+01 7.1068009675e+01 0.0000000000e+00 0.0000e+00 -1.0000e+00
      -12  1    3    3    0    0 -2.1501506950e+01 -2.8547946991e+01 +1.8451910939e+02 1.8794840198e+02 0.0000000000e+00 0.0000e+00 1.0000e+00
<mgrwt>
<rscale>  0 0.81238354E+02</rscale>
<asrwt>0</asrwt>
<pdfrwt beam="1">  1        1 0.38843317E-01 0.81238354E+02</pdfrwt>
<pdfrwt beam="2">  1       -2 0.10053545E-02 0.81238354E+02</pdfrwt>
<totfact> 0.16753828E+05</totfact>
</mgrwt>
</event>
<event>
 5      1 +7.5707000e+03 7.85785800e+01 7.54677100e-03 1.33313400e-01
        1 -1    0    0  501    0 +0.0000000000e+00 +0.0000000000e+00 +9.8967291999e+01 9.8967291999e+01 0.0000000000e+00 0.0000e+00 -1.0000e+00
       -2 -1    0    0    0  501 -0.0000000000e+00 -0.0000000000e+00 -1.5597560032e+01 1.5597560032e+01 0.0000000000e+00 0.0000e+00 1.0000e+00
      -24  2    1    2    0    0 +0.0000000000e+00 +0.0000000000e+00 +8.3369731967e+01 1.1456485203e+02 7.8578579222e+01 0.0000e+00 0.0000e+00
       11  1    3    3    0    0 -1.3763669377e+01 +1.0127894650e+01 +9.3265437653e+01 9.4818008339e+01 0.0000000000e+00 0.0000e+00 -1.0000e+00
      -12  1    3    3    0    0 +1.3763669377e+01 -1.0127894650e+01 -9.8957056859e+00 1.9746843692e+01 0.0000000000e+00 0.0000e+00 1.0000e+00
<mgrwt>
<rscale>  0 0.78578579E+02</rscale>
<asrwt>0</asrwt>
<pdfrwt beam="1">  1        1 0.15225737E-01 0.78578579E+02</pdfrwt>
<pdfrwt beam="2">  1       -2 0.23996247E-02 0.78578579E+02</pdfrwt>
<totfact> 0.15401324E+05</totfact>
</mgrwt>
</event>
<event>
 5      1 +7.5707000e+03 8.21087600e+01 7.54677100e-03 1.32317100e-01
        3 -1    0    0  501    0 +0.0000000000e+00 +0.0000000000e+00 +1.0986977902e+02 1.0986977902e+02 0.0000000000e+00 0.0000e+00 -1.0000e+00
       -4 -1    0    0    0  501 -0.0000000000e+00 -0.0000000000e+00 -1.5340544690e+01 1.5340544690e+01 0.0000000000e+00 0.0000e+00 1.0000e+00
      -24  2    1    2    0    0 +0.0000000000e+00 +0.0000000000e+00 +9.4529234325e+01 1.2521032371e+02 8.2108763360e+01 0.0000e+00 0.0000e+00
       13  1    3    3    0    0 -2.2734988365e+01 -3.2746824971e+01 +3.2305657633e+01 5.1311692203e+01 0.0000000000e+00 0.0000e+00 -1.0000e+00
      -14  1    3    3    0    0 +2.2734988365e+01 +3.2746824971e+01 +6.2223576692e+01 7.3898631503e+01 0.0000000000e+00 0.0000e+00 1.0000e+00
<mgrwt>
<rscale>  0 0.82108763E+02</rscale>
<asrwt>0</asrwt>
<pdfrwt beam="1">  1        3 0.16903042E-01 0.82108763E+02</pdfrwt>
<pdfrwt beam="2">  1       -4 0.23600839E-02 0.82108763E+02</pdfrwt>
<totfact> 0.39059239E+04</totfact>
</mgrwt>
</event>
<event>
 5      1 +7.5707000e+03 7.84455300e+01 7.54677100e-03 1.33352200e-01
        3 -1    0    0  501    0 +0.0000000000e+00 +0.0000000000e+00 +2.1580041178e+02 2.1580041178e+02 0.0000000000e+00 0.0000e+00 -1.0000e+00
       -4 -1    0    0    0  501 -0.0000000000e+00 -0.0000000000e+00 -7.1289265581e+00 7.1289265581e+00 0.0000000000e+00 0.0000e+00 1.0000e+00
      -24  2    1    2    0    0 +0.0000000000e+00 +0.0000000000e+00 +2.0867148522e+02 2.2292933834e+02 7.8445529810e+01 0.0000e+00 0.0000e+00
       11  1    3    3    0    0 +2.9019569139e+01 +2.6330391017e+01 +9.9413207774e+01 1.0685696404e+02 0.0000000000e+00 0.0000e+00 -1.0000e+00
      -12  1    3    3    0    0 -2.9019569139e+01 -2.6330391017e+01 +1.0925827745e+02 1.1607237430e+02 0.0000000000e+00 0.0000e+00 1.0000e+00
<mgrwt>
<rscale>  0 0.78445530E+02</rscale>
<asrwt>0</asrwt>
<pdfrwt beam="1">  1        3 0.33200058E-01 0.78445530E+02</pdfrwt>
<pdfrwt beam="2">  1       -4 0.10967581E-02 0.78445530E+02</pdfrwt>
<totfact> 0.37004962E+04</totfact>
</mgrwt>
</event>
<event>
 5      1 +7.5707000e+03 8.73597600e+01 7.54677100e-03 1.30937400e-01
       -4 -1    0    0    0  501 -0.0000000000e+00 +0.0000000000e+00 +3.2650406518e+02 3.2650406518e+02 0.0000000000e+00 0.0000e+00 1.0000e+00
        3 -1    0    0  501    0 +0.0000000000e+00 -0.0000000000e+00 -5.8435170419e+00 5.8435170419e+00 0.0000000000e+00 0.0000e+00 -1.0000e+00
      -24  2    1    2    0    0 +0.0000000000e+00 +0.0000000000e+00 +3.2066054814e+02 3.3234758223e+02 8.7359763487e+01 0.0000e+00 0.0000e+00
       13  1    3    3    0    0 -2.9619821111e+01 +2.9938215034e+01 +1.1624215389e+02 1.2363603384e+02 0.0000000000e+00 0.0000e+00 -1.0000e+00
      -14  1    3    3    0    0 +2.9619821111e+01 -2.9938215034e+01 +2.0441839425e+02 2.0871154838e+02 0.0000000000e+00 0.0000e+00 1.0000e+00
<mgrwt>
<rscale>  0 0.87359763E+02</rscale>
<asrwt>0</asrwt>
<pdfrwt beam="1">  1        3 0.89900288E-03 0.87359763E+02</pdfrwt>
<pdfrwt beam="2">  1       -4 0.50231380E-01 0.87359763E+02</pdfrwt>
<totfact> 0.20755497E+04</totfact>
</mgrwt>
</event>
<event>
 5      1 +7.5707000e+03 7.21667900e+01 7.54677100e-03 1.35287600e-01
        1 -1    0    0  501    0 +0.0000000000e+00 +0.0000000000e+00 +1.9549256927e+01 1.9549256927e+01 0.0000000000e+00 0.0000e+00 -1.0000e+00
       -2 -1    0    0    0  501 -0.0000000000e+00 -0.0000000000e+00 -6.6601574321e+01 6.6601574321e+01 0.0000000000e+00 0.0000e+00 1.0000e+00
      -24  2    1    2    0    0 +0.0000000000e+00 +0.0000000000e+00 -4.7052317394e+01 8.6150831248e+01 7.2166787046e+01 0.0000e+00 0.0000e+00
       11  1    3    3    0    0 -1.4950654698e+01 +2.3303389155e+01 +4.0972978480e+00 2.7988531074e+01 0.0000000000e+00 0.0000e+00 -1.0000e+00
      -12  1    3    3    0    0 +1.4950654698e+01 -2.3303389155e+01 -5.1149615242e+01 5.8162300174e+01 0.0000000000e+00 0.0000e+00 1.0000e+00
<mgrwt>
<rscale>  0 0.72166787E+02</rscale>
<asrwt>0</asrwt>
<pdfrwt beam="1">  1        1 0.30075780E-02 0.72166787E+02</pdfrwt>
<pdfrwt beam="2">  1       -2 0.10246396E-01 0.72166787E+02</pdfrwt>
<totfact> 0.15063186E+05</totfact>
</mgrwt>
</event>
<event>
 5      1 +7.5707000e+03 7.92738200e+01 7.54677100e-03 1.33112500e-01
       -2 -1    0    0    0  501 -0.0000000000e+00 +0.0000000000e+00 +2.5245136459e+01 2.5245136459e+01 0.0000000000e+00 0.0000e+00 1.0000e+00
        1 -1    0    0  501    0 +0.0000000000e+00 -0.0000000000e+00 -6.2233163426e+01 6.2233163426e+01 0.0000000000e+00 0.0000e+00 -1.0000e+00
      -24  2    1    2    0    0 +0.0000000000e+00 +0.0000000000e+00 -3.6988026967e+01 8.7478299885e+01 7.9273821732e+01 0.0000e+00 0.0000e+00
       11  1    3    3    0    0 +2.5196642687e+01 -3.0609834243e+00 -5.2088957797e+01 5.7943937963e+01 0.0000000000e+00 0.0000e+00 -1.0000e+00
      -12  1    3    3    0    0 -2.5196642687e+01 +3.0609834243e+00 +1.5100930831e+01 2.9534361922e+01 0.0000000000e+00 0.0000e+00 1.0000e+00
<mgrwt>
<rscale>  0 0.79273822E+02</rscale>
<asrwt>0</asrwt>
<pdfrwt beam="1">  1        1 0.95743326E-02 0.79273822E+02</pdfrwt>
<pdfrwt beam="2">  1       -2 0.38838672E-02 0.79273822E+02</pdfrwt>
<totfact> 0.13961931E+05</totfact>
</mgrwt>
</event>
<event>
 5      1 +7.5707000e+03 8.36754400e+01 7.54677100e-03 1.31893300e-01
       -2 -1    0    0    0  501 -0.0000000000e+00 +0.0000000000e+00 +3.0233503724e+01 3.0233503724e+01 0.0000000000e+00 0.0000e+00 1.0000e+00
        1 -1    0    0  501    0 +0.0000000000e+00 -0.0000000000e+00 -5.7895861082e+01 5.7895861082e+01 0.0000000000e+00 0.0000e+00 -1.0000e+00
      -24  2    1    2    0    0 +0.0000000000e+00 +0.0000000000e+00 -2.7662357358e+01 8.8129364807e+01 8.3675438013e+01 0.0000e+00 0.0000e+00
       11  1    3    3    0    0 +1.4535866204e+01 +8.5559849814e+00 -5.4156198340e+01 5.6722042487e+01 0.0000000000e+00 0.0000e+00 -1.0000e+00
      -12  1    3    3    0    0 -1.4535866204e+01 -8.5559849814e+00 +2.6493840982e+01 3.1407322319e+01 0.0000000000e+00 0.0000e+00 1.0000e+00
<mgrwt>
<rscale>  0 0.83675438E+02</rscale>
<asrwt>0</asrwt>
<pdfrwt beam="1">  1        1 0.89070554E-02 0.83675438E+02</pdfrwt>
<pdfrwt beam="2">  1       -2 0.46513083E-02 0.83675438E+02</pdfrwt>
<totfact> 0.11887082E+05</totfact>
</mgrwt>
</event>
<event>
 5      1 +7.5707000e+03 8.26752200e+01 7.54677100e-03 1.32162700e-01
        1 -1    0    0  501    0 +0.0000000000e+00 +0.0000000000e+00 +6.1308519516e+01 6.1308519516e+01 0.0000000000e+00 0.0000e+00 -1.0000e+00
       -2 -1    0    0    0  501 -0.0000000000e+00 -0.0000000000e+00 -2.7872114985e+01 2.7872114985e+01 0.0000000000e+00 0.0000e+00 1.0000e+00
      -24  2    1    2    0    0 +0.0000000000e+00 +0.0000000000e+00 +3.3436404531e+01 8.9180634501e+01 8.2675222540e+01 0.0000e+00 0.0000e+00
       13  1    3    3    0    0 +4.1191259129e+01 +3.2203996187e+00 +1.5308749568e+01 4.4061872585e+01 0.0000000000e+00 0.0000e+00 -1.0000e+00
      -14  1    3    3    0    0 -4.1191259129e+01 -3.2203996187e+00 +1.8127654963e+01 4.5118761916e+01 0.0000000000e+00 0.0000e+00 1.0000e+00
<mgrwt>
<rscale>  0 0.82675223E+02</rscale>
<asrwt>0</asrwt>
<pdfrwt beam="1">  1        1 0.94320799E-02 0.82675223E+02</pdfrwt>
<pdfrwt beam="2">  1       -2 0.42880177E-02 0.82675223E+02</pdfrwt>
<totfact> 0.12404945E+05</totfact>
</mgrwt>
</event>
<event>
 5      1 +7.5707000e+03 7.98604200e+01 7.54677100e-03 1.32944800e-01
       -2 -1    0    0    0  501 -0.0000000000e+00 +0.0000000000e+00 +4.5859478287e+01 4.5859478287e+01 0.0000000000e+00 0.0000e+00 1.0000e+00
        1 -1    0    0  501    0 +0.0000000000e+00 -0.0000000000e+00 -3.4767545517e+01 3.4767545517e+01 0.0000000000e+00 0.0000e+00 -1.0000e+00
      -24  2    1    2    0    0 +0.0000000000e+00 +0.0000000000e+00 +1.1091932770e+01 8.0627023805e+01 7.9860415695e+01 0.0000e+00 0.0000e+00
       13  1    3    3    0    0 +3.9612016581e+01 +1.4194227840e+00 +6.7315835357e-01 3.9643155283e+01 0.0000000000e+00 0.0000e+00 -1.0000e+00
      -14  1    3    3    0    0 -3.9612016581e+01 -1.4194227840e+00 +1.0418774417e+01 4.0983868521e+01 0.0000000000e+00 0.0000e+00 1.0000e+00
<mgrwt>
<rscale>  0 0.79860416E+02</rscale>
<asrwt>0</asrwt>
<pdfrwt beam="1">  1        1 0.53488531E-02 0.79860416E+02</pdfrwt>
<pdfrwt beam="2">  1       -2 0.70553044E-02 0.79860416E+02</pdfrwt>
<totfact> 0.12468338E+05</totfact>
</mgrwt>
</event>
<event>
 5      1 +7.5707000e+03 8.16091500e+01 7.54677100e-03 1.32454600e-01
       -2 -1    0    0    0  501 -0.0000000000e+00 +0.0000000000e+00 +1.7406287556e+01 1.7406287556e+01 0.0000000000e+00 0.0000e+00 1.0000e+00
        1 -1    0    0  501    0 +0.0000000000e+00 -0.0000000000e+00 -9.5655860165e+01 9.5655860165e+01 0.0000000000e+00 0.0000e+00 -1.0000e+00
      -24  2    1    2    0    0 +0.0000000000e+00 +0.0000000000e+00 -7.8249572609e+01 1.1306214772e+02 8.1609151655e+01 0.0000e+00 0.0000e+00
       11  1    3    3    0    0 +3.5662700303e+01 +1.3805501926e+01 -5.8844061210e+01 7.0178654989e+01 0.0000000000e+00 0.0000e+00 -1.0000e+00
      -12  1    3    3    0    0 -3.5662700303e+01 -1.3805501926e+01 -1.9405511399e+01 4.2883492733e+01 0.0000000000e+00 0.0000e+00 1.0000e+00
<mgrwt>
<rscale>  0 0.81609152E+02</rscale>
<asrwt>0</asrwt>
<pdfrwt beam="1">  1        1 0.14716286E-01 0.81609152E+02</pdfrwt>
<pdfrwt beam="2">  1       -2 0.26778904E-02 0.81609152E+02</pdfrwt>
<totfact> 0.13823660E+05</totfact>
</mgrwt>
</event>
<event>
 5      1 +7.5707000e+03 7.99889000e+01 7.54677100e-03 1.32908300e-01
       -2 -1    0    0    0  501 -0.0000000000e+00 +0.0000000000e+00 +1.2399086437e+01 1.2399086437e+01 0.0000000000e+00 0.0000e+00 1.0000e+00
        1 -1    0    0  501    0 +0.0000000000e+00 -0.0000000000e+00 -1.2900596022e+02 1.2900596022e+02 0.0000000000e+00 0.0000e+00 -1.0000e+00
      -24  2    1    2    0    0 +0.0000000000e+00 +0.0000000000e+00 -1.1660687378e+02 1.4140504666e+02 7.9988900521e+01 0.0000e+00 0.0000e+00
       11  1    3    3    0    0 -2.9075968595e+01 +3.1323227024e+00 -1.0653359869e+02 1.1047457194e+02 0.0000000000e+00 0.0000e+00 -1.0000e+00
      -12  1    3    3    0    0 +2.9075968595e+01 -3.1323227024e+00 -1.0073275094e+01 3.0930474720e+01 0.0000000000e+00 0.0000e+00 1.0000e+00
<mgrwt>
<rscale>  0 0.79988901E+02</rscale>
<asrwt>0</asrwt>
<pdfrwt beam="1">  1        1 0.19847073E-01 0.79988901E+02</pdfrwt>
<pdfrwt beam="2">  1       -2 0.19075516E-02 0.79988901E+02</pdfrwt>
<totfact> 0.15367703E+05</totfact>
</mgrwt>
</event>
<event>
 4      1 +7.5707000e+03 1.14399400e+02 7.54677100e-03 1.25263300e-01
       -2 -1    0    0    0  501 -0.0000000000e+00 +0.0000000000e+00 +3.2265125478e+01 3.2265125478e+01 0.0000000000e+00 0.0000e+00 1.0000e+00
        1 -1    0    0  501    0 +0.0000000000e+00 -0.0000000000e+00 -1.0140380336e+02 1.0140380336e+02 0.0000000000e+00 0.0000e+00 -1.0000e+00
       13  1    1    2    0    0 +4.9296329476e+01 -2.8173489951e+01 -2.6479812721e+01 6.2650252334e+01 0.0000000000e+00 0.0000e+00 -1.0000e+00
      -14  1    1    2    0    0 -4.9296329476e+01 +2.8173489951e+01 -4.2658865163e+01 7.1018676507e+01 0.0000000000e+00 0.0000e+00 1.0000e+00
<mgrwt>
<rscale>  0 0.11439941E+03</rscale>
<asrwt>0</asrwt>
<pdfrwt beam="1">  1        1 0.15600585E-01 0.11439941E+03</pdfrwt>
<pdfrwt beam="2">  1       -2 0.49638655E-02 0.11439941E+03</pdfrwt>
<totfact> 0.54615529E+04</totfact>
</mgrwt>
</event>
<event>
 5      1 +7.5707000e+03 7.55044400e+01 7.54677100e-03 1.34231600e-01
       -2 -1    0    0    0  501 -0.0000000000e+00 +0.0000000000e+00 +2.1966596852e+02 2.1966596852e+02 0.0000000000e+00 0.0000e+00 1.0000e+00
        1 -1    0    0  501    0 +0.0000000000e+00 -0.0000000000e+00 -6.4881704257e+00 6.4881704257e+00 0.0000000000e+00 0.0000e+00 -1.0000e+00
      -24  2    1    2    0    0 +0.0000000000e+00 +0.0000000000e+00 +2.1317779810e+02 2.2615413895e+02 7.5504443326e+01 0.0000e+00 0.0000e+00
       13  1    3    3    0    0 -1.5531022009e+01 -2.4231926447e+01 +3.3414723288e+01 4.4101503788e+01 0.0000000000e+00 0.0000e+00 -1.0000e+00
      -14  1    3    3    0    0 +1.5531022009e+01 +2.4231926447e+01 +1.7976307481e+02 1.8205263516e+02 0.0000000000e+00 0.0000e+00 1.0000e+00
<mgrwt>
<rscale>  0 0.75504443E+02</rscale>
<asrwt>0</asrwt>
<pdfrwt beam="1">  1        1 0.99818023E-03 0.75504443E+02</pdfrwt>
<pdfrwt beam="2">  1       -2 0.33794759E-01 0.75504443E+02</pdfrwt>
<totfact> 0.94932179E+04</totfact>
</mgrwt>
</event>
<event>
 5      1 +7.5707000e+03 7.72646600e+01 7.54677100e-03 1.33699800e-01
        1 -1    0    0  501    0 +0.0000000000e+00 +0.0000000000e+00 +6.8735763062e+00 6.8735763062e+00 0.0000000000e+00 0.0000e+00 -1.0000e+00
       -2 -1    0    0    0  501 -0.0000000000e+00 -0.0000000000e+00 -2.1712961070e+02 2.1712961070e+02 0.0000000000e+00 0.0000e+00 1.0000e+00
      -24  2    1    2    0    0 +0.0000000000e+00 +0.0000000000e+00 -2.1025603440e+02 2.2400318701e+02 7.7264660680e+01 0.0000e+00 0.0000e+00
       11  1    3    3    0    0 -1.7238254722e+01 +1.3671585791e+00 -4.9731997639e+00 1.7993311655e+01 0.0000000000e+00 0.0000e+00 -1.0000e+00
      -12  1    3    3    0    0 +1.7238254722e+01 -1.3671585791e+00 -2.0528283463e+02 2.0600987535e+02 0.0000000000e+00 0.0000e+00 1.0000e+00
<mgrwt>
<rscale>  0 0.77264661E+02</rscale>
<asrwt>0</asrwt>
<pdfrwt beam="1">  1        1 0.10574734E-02 0.77264661E+02</pdfrwt>
<pdfrwt beam="2">  1       -2 0.33404553E-01 0.77264661E+02</pdfrwt>
<totfact> 0.89916558E+04</totfact>
</mgrwt>
</event>
<event>
 5      1 +7.5707000e+03 8.01496300e+01 7.54677100e-03 1.32862700e-01
        1 -1    0    0  501    0 +0.0000000000e+00 +0.0000000000e+00 +9.1549299052e+00 9.1549299052e+00 0.0000000000e+00 0.0000e+00 -1.0000e+00
       -2 -1    0    0    0  501 -0.0000000000e+00 -0.0000000000e+00 -1.7542358218e+02 1.7542358218e+02 0.0000000000e+00 0.0000e+00 1.0000e+00
      -24  2    1    2    0    0 +0.0000000000e+00 +0.0000000000e+00 -1.6626865227e+02 1.8457851208e+02 8.0149625041e+01 0.0000e+00 0.0000e+00
       13  1    3    3    0    0 +3.0215061482e+01 -2.4033818430e+01 -5.8393563212e+01 7.0002732756e+01 0.0000000000e+00 0.0000e+00 -1.0000e+00
      -14  1    3    3    0    0 -3.0215061482e+01 +2.4033818430e+01 -1.0787508906e+02 1.1457577933e+02 0.0000000000e+00 0.0000e+00 1.0000e+00
<mgrwt>
<rscale>  0 0.80149625E+02</rscale>
<asrwt>0</asrwt>
<pdfrwt beam="1">  1        1 0.14084509E-02 0.80149625E+02</pdfrwt>
<pdfrwt beam="2">  1       -2 0.26988242E-01 0.80149625E+02</pdfrwt>
<totfact> 0.89072687E+04</totfact>
</mgrwt>
</event>
<event>
 5      1 +7.5707000e+03 7.99628700e+01 7.54677100e-03 1.32915700e-01
       -2 -1    0    0    0  501 -0.0000000000e+00 +0.0000000000e+00 +1.0026377416e+01 1.0026377416e+01 0.0000000000e+00 0.0000e+00 1.0000e+00
        1 -1    0    0  501    0 +0.0000000000e+00 -0.0000000000e+00 -1.5943095833e+02 1.5943095833e+02 0.0000000000e+00 0.0000e+00 -1.0000e+00
      -24  2    1    2    0    0 +0.0000000000e+00 +0.0000000000e+00 -1.4940458091e+02 1.6945733574e+02 7.9962865381e+01 0.0000e+00 0.0000e+00
       13  1    3    3    0    0 -3.3678089865e+01 -1.9310637658e+01 -5.4441970351e+01 6.6865855258e+01 0.0000000000e+00 0.0000e+00 -1.0000e+00
      -14  1    3    3    0    0 +3.3678089865e+01 +1.9310637658e+01 -9.4962610559e+01 1.0259148048e+02 0.0000000000e+00 0.0000e+00 1.0000e+00
<mgrwt>
<rscale>  0 0.79962865E+02</rscale>
<asrwt>0</asrwt>
<pdfrwt beam="1">  1        1 0.24527839E-01 0.79962865E+02</pdfrwt>
<pdfrwt beam="2">  1       -2 0.15425197E-02 0.79962865E+02</pdfrwt>
<totfact> 0.15987963E+05</totfact>
</mgrwt>
</event>
<event>
 5      1 +7.5707000e+03 7.97123200e+01 7.54677100e-03 1.32987000e-01
        1 -1    0    0  501    0 +0.0000000000e+00 +0.0000000000e+00 +5.5111053219e+01 5.5111053219e+01 0.0000000000e+00 0.0000e+00 -1.0000e+00
       -2 -1    0    0    0  501 -0.0000000000e+00 -0.0000000000e+00 -2.8823863219e+01 2.8823863219e+01 0.0000000000e+00 0.0000e+00 1.0000e+00
      -24  2    1    2    0    0 +0.0000000000e+00 +0.0000000000e+00 +2.6287190000e+01 8.3934916439e+01 7.9712319245e+01 0.0000e+00 0.0000e+00
       11  1    3    3    0    0 +2.9072475224e+00 -2.4249764097e+01 +4.6308236782e+01 5.2354139672e+01 0.0000000000e+00 0.0000e+00 -1.0000e+00
      -12  1    3    3    0    0 -2.9072475224e+00 +2.4249764097e+01 -2.0021046782e+01 3.1580776767e+01 0.0000000000e+00 0.0000e+00 1.0000e+00
<mgrwt>
<rscale>  0 0.79712319E+02</rscale>
<asrwt>0</asrwt>
<pdfrwt beam="1">  1        1 0.84786235E-02 0.79712319E+02</pdfrwt>
<pdfrwt beam="2">  1       -2 0.44344405E-02 0.79712319E+02</pdfrwt>
<totfact> 0.13493363E+05</totfact>
</mgrwt>
</event>
<event>
 5      1 +7.5707000e+03 7.90406100e+01 7.54677100e-03 1.33179600e-01
       -4 -1    0    0    0  501 -0.0000000000e+00 +0.0000000000e+00 +1.1601103199e+02 1.1601103199e+02 0.0000000000e+00 0.0000e+00 1.0000e+00
        3 -1    0    0  501    0 +0.0000000000e+00 -0.0000000000e+00 -1.3462982533e+01 1.3462982533e+01 0.0000000000e+00 0.0000e+00 -1.0000e+00
      -24  2    1    2    0    0 +0.0000000000e+00 +0.0000000000e+00 +1.0254804945e+02 1.2947401452e+02 7.9040609746e+01 0.0000e+00 0.0000e+00
       11  1    3    3    0    0 -3.7355783636e+01 -3.8748106256e+00 +7.1428656017e+01 8.0700195966e+01 0.0000000000e+00 0.0000e+00 -1.0000e+00
      -12  1    3    3    0    0 +3.7355783636e+01 +3.8748106256e+00 +3.1119393437e+01 4.8773818554e+01 0.0000000000e+00 0.0000e+00 1.0000e+00
<mgrwt>
<rscale>  0 0.79040610E+02</rscale>
<asrwt>0</asrwt>
<pdfrwt beam="1">  1        3 0.20712282E-02 0.79040610E+02</pdfrwt>
<pdfrwt beam="2">  1       -4 0.17847850E-01 0.79040610E+02</pdfrwt>
<totfact> 0.40393576E+04</totfact>
</mgrwt>
</event>
<event>
 5      1 +7.5707000e+03 7.96118000e+01 7.54677100e-03 1.33015700e-01
       -2 -1    0    0    0  501 -0.0000000000e+00 +0.0000000000e+00 +4.6542917057e+02 4.6542917057e+02 0.0000000000e+00 0.0000e+00 1.0000e+00
        1 -1    0    0  501    0 +0.0000000000e+00 -0.0000000000e+00 -3.4044056906e+00 3.4044056906e+00 0.0000000000e+00 0.0000e+00 -1.0000e+00
      -24  2    1    2    0    0 +0.0000000000e+00 +0.0000000000e+00 +4.6202476488e+02 4.6883357626e+02 7.9611801056e+01 0.0000e+00 0.0000e+00
       13  1    3    3    0    0 -1.8013016853e+01 -1.8828095175e+01 +5.3799217499e+01 5.9777267816e+01 0.0000000000e+00 0.0000e+00 -1.0000e+00
      -14  1    3    3    0    0 +1.8013016853e+01 +1.8828095175e+01 +4.0822554738e+02 4.0905630845e+02 0.0000000000e+00 0.0000e+00 1.0000e+00
<mgrwt>
<rscale>  0 0.79611801E+02</rscale>
<asrwt>0</asrwt>
<pdfrwt beam="1">  1        1 0.52375509E-03 0.79611801E+02</pdfrwt>
<pdfrwt beam="2">  1       -2 0.71604437E-01 0.79611801E+02</pdfrwt>
<totfact> 0.53841235E+04</totfact>
</mgrwt>
</event>
<event>
 5      1 +7.5707000e+03 8.27635100e+01 7.54677100e-03 1.32138700e-01
        1 -1    0    0  501    0 +0.0000000000e+00 +0.0000000000e+00 +3.7571119397e+01 3.7571119397e+01 0.0000000000e+00 0.0000e+00 -1.0000e+00
       -2 -1    0    0    0  501 -0.0000000000e+00 -0.0000000000e+00 -4.5578878515e+01 4.5578878515e+01 0.0000000000e+00 0.0000e+00 1.0000e+00
      -24  2    1    2    0    0 +0.0000000000e+00 +0.0000000000e+00 -8.0077591187e+00 8.3149997912e+01 8.2763506128e+01 0.0000e+00 0.0000e+00
       11  1    3    3    0    0 +3.0546592319e+01 -9.0769305784e+00 +2.2519489964e+01 3.9020666310e+01 0.0000000000e+00 0.0000e+00 -1.0000e+00
      -12  1    3    3    0    0 -3.0546592319e+01 +9.0769305784e+00 -3.0527249083e+01 4.4129331602e+01 0.0000000000e+00 0.0000e+00 1.0000e+00
<mgrwt>
<rscale>  0 0.82763506E+02</rscale>
<asrwt>0</asrwt>
<pdfrwt beam="1">  1        1 0.57801722E-02 0.82763506E+02</pdfrwt>
<pdfrwt beam="2">  1       -2 0.70121352E-02 0.82763506E+02</pdfrwt>
<totfact> 0.11413033E+05</totfact>
</mgrwt>
</event>
<event>
 5      1 +7.5707000e+03 8.23627400e+01 7.54677100e-03 1.32247700e-01
       -2 -1    0    0    0  501 -0.0000000000e+00 +0.0000000000e+00 +2.4791521969e+02 2.4791521969e+02 0.0000000000e+00 0.0000e+00 1.0000e+00
        1 -1    0    0  501    0 +0.0000000000e+00 -0.0000000000e+00 -6.8406655764e+00 6.8406655764e+00 0.0000000000e+00 0.0000e+00 -1.0000e+00
      -24  2    1    2    0    0 +0.0000000000e+00 +0.0000000000e+00 +2.4107455412e+02 2.5475588527e+02 8.2362736944e+01 0.0000e+00 0.0000e+00
       13  1    3    3    0    0 +3.8055689779e+01 -1.2873996220e+01 +1.4853446540e+02 1.5387157865e+02 0.0000000000e+00 0.0000e+00 -1.0000e+00
      -14  1    3    3    0    0 -3.8055689779e+01 +1.2873996220e+01 +9.2540088713e+01 1.0088430662e+02 0.0000000000e+00 0.0000e+00 1.0000e+00
<mgrwt>
<rscale>  0 0.82362737E+02</rscale>
<asrwt>0</asrwt>
<pdfrwt beam="1">  1        1 0.10524103E-02 0.82362737E+02</pdfrwt>
<pdfrwt beam="2">  1       -2 0.38140796E-01 0.82362737E+02</pdfrwt>
<totfact> 0.71811342E+04</totfact>
</mgrwt>
</event>
<event>
 5      1 +7.5707000e+03 7.93456800e+01 7.54677100e-03 1.33091900e-01
       -2 -1    0    0    0  501 -0.0000000000e+00 +0.0000000000e+00 +2.6855199481e+00 2.6855199481e+00 0.0000000000e+00 0.0000e+00 1.0000e+00
        1 -1    0    0  501    0 +0.0000000000e+00 -0.0000000000e+00 -5.8608171796e+02 5.8608171796e+02 0.0000000000e+00 0.0000e+00 -1.0000e+00
      -24  2    1    2    0    0 +0.0000000000e+00 +0.0000000000e+00 -5.8339619801e+02 5.8876723791e+02 7.9345677760e+01 0.0000e+00 0.0000e+00
       13  1    3    3    0    0 -3.7271184893e+01 -8.6348877088e+00 -2.1379163604e+02 2.1718785912e+02 0.0000000000e+00 0.0000e+00 -1.0000e+00
      -14  1    3    3    0    0 +3.7271184893e+01 +8.6348877088e+00 -3.6960456197e+02 3.7157937879e+02 0.0000000000e+00 0.0000e+00 1.0000e+00
<mgrwt>
<rscale>  0 0.79345678E+02</rscale>
<asrwt>0</asrwt>
<pdfrwt beam="1">  1        1 0.90166328E-01 0.79345678E+02</pdfrwt>
<pdfrwt beam="2">  1       -2 0.41315733E-03 0.79345678E+02</pdfrwt>
<totfact> 0.20337926E+05</totfact>
</mgrwt>
</event>
<event>
 5      1 +7.5707000e+03 7.87666000e+01 7.54677100e-03 1.33258900e-01
        1 -1    0    0  501    0 +0.0000000000e+00 +0.0000000000e+00 +5.2991053974e+01 5.2991053974e+01 0.0000000000e+00 0.0000e+00 -1.0000e+00
       -2 -1    0    0    0  501 -0.0000000000e+00 -0.0000000000e+00 -2.9269930898e+01 2.9269930898e+01 0.0000000000e+00 0.0000e+00 1.0000e+00
      -24  2    1    2    0    0 +0.0000000000e+00 +0.0000000000e+00 +2.3721123076e+01 8.2260984871e+01 7.8766604294e+01 0.0000e+00 0.0000e+00
       13  1    3    3    0    0 +3.0275496244e+01 +2.4512743181e+01 +5.8100767884e+00 3.9385749242e+01 0.0000000000e+00 0.0000e+00 -1.0000e+00
      -14  1    3    3    0    0 -3.0275496244e+01 -2.4512743181e+01 +1.7911046288e+01 4.2875235629e+01 0.0000000000e+00 0.0000e+00 1.0000e+00
<mgrwt>
<rscale>  0 0.78766604E+02</rscale>
<asrwt>0</asrwt>
<pdfrwt beam="1">  1        1 0.81524698E-02 0.78766604E+02</pdfrwt>
<pdfrwt beam="2">  1       -2 0.45030663E-02 0.78766604E+02</pdfrwt>
<totfact> 0.13861548E+05</totfact>
</mgrwt>
</event>
<event>
 5      1 +7.5707000e+03 7.04126900e+01 7.54677100e-03 1.35869500e-01
        1 -1    0    0  501    0 +0.0000000000e+00 +0.0000000000e+00 +3.7776192187e+00 3.7776192187e+00 0.0000000000e+00 0.0000e+00 -1.0000e+00
       -2 -1    0    0    0  501 -0.0000000000e+00 -0.0000000000e+00 -3.2811322373e+02 3.2811322373e+02 0.0000000000e+00 0.0000e+00 1.0000e+00
      -24  2    1    2    0    0 +0.0000000000e+00 +0.0000000000e+00 -3.2433560451e+02 3.3189084294e+02 7.0412692602e+01 0.0000e+00 0.0000e+00
       11  1    3    3    0    0 +2.2520145309e+01 +1.0651991348e+01 -4.4909861429e+01 5.1356767012e+01 0.0000000000e+00 0.0000e+00 -1.0000e+00
      -12  1    3    3    0    0 -2.2520145309e+01 -1.0651991348e+01 -2.7942574308e+02 2.8053407593e+02 0.0000000000e+00 0.0000e+00 1.0000e+00
<mgrwt>
<rscale>  0 0.70412693E+02</rscale>
<asrwt>0</asrwt>
<pdfrwt beam="1">  1        1 0.58117215E-03 0.70412693E+02</pdfrwt>
<pdfrwt beam="2">  1       -2 0.50478961E-01 0.70412693E+02</pdfrwt>
<totfact> 0.92762833E+04</totfact>
</mgrwt>
</event>
<event>
 5      1 +7.5707000e+03 8.10079500e+01 7.54677100e-03 1.32621500e-01
       -2 -1    0    0    0  501 -0.0000000000e+00 +0.0000000000e+00 +6.1833849306e+01 6.1833849306e+01 0.0000000000e+00 0.0000e+00 1.0000e+00
        1 -1    0    0  501    0 +0.0000000000e+00 -0.0000000000e+00 -2.6531937804e+01 2.6531937804e+01 0.0000000000e+00 0.0000e+00 -1.0000e+00
      -24  2    1    2    0    0 +0.0000000000e+00 +0.0000000000e+00 +3.5301911502e+01 8.8365787109e+01 8.1007946374e+01 0.0000e+00 0.0000e+00
       11  1    3    3    0    0 +3.4339028229e+01 -1.1447384327e+01 -2.1757473755e+00 3.6262175118e+01 0.0000000000e+00 0.0000e+00 -1.0000e+00
      -12  1    3    3    0    0 -3.4339028229e+01 +1.1447384327e+01 +3.7477658877e+01 5.2103611991e+01 0.0000000000e+00 0.0000e+00 1.0000e+00
<mgrwt>
<rscale>  0 0.81007946E+02</rscale>
<asrwt>0</asrwt>
<pdfrwt beam="1">  1        1 0.40818366E-02 0.81007946E+02</pdfrwt>
<pdfrwt beam="2">  1       -2 0.95128998E-02 0.81007946E+02</pdfrwt>
<totfact> 0.11404894E+05</totfact>
</mgrwt>
</event>
<event>
 5      1 +7.5707000e+03 7.88830700e+01 7.54677100e-03 1.33225100e-01
       -2 -1    0    0    0  501 -0.0000000000e+00 +0.0000000000e+00 +4.2899979464e+02 4.2899979464e+02 0.0000000000e+00 0.0000e+00 1.0000e+00
        1 -1    0    0  501    0 +0.0000000000e+00 -0.0000000000e+00 -3.6261901242e+00 3.6261901242e+00 0.0000000000e+00 0.0000e+00 -1.0000e+00
      -24  2    1    2    0    0 +0.0000000000e+00 +0.0000000000e+00 +4.2537360452e+02 4.3262598476e+02 7.8883073434e+01 0.0000e+00 0.0000e+00
       11  1    3    3    0    0 -2.9676381877e+01 +1.3386833984e+01 +9.0575547301e+01 9.6248764845e+01 0.0000000000e+00 0.0000e+00 -1.0000e+00
      -12  1    3    3    0    0 +2.9676381877e+01 -1.3386833984e+01 +3.3479805721e+02 3.3637721992e+02 0.0000000000e+00 0.0000e+00 1.0000e+00
<mgrwt>
<rscale>  0 0.78883073E+02</rscale>
<asrwt>0</asrwt>
<pdfrwt beam="1">  1        1 0.55787574E-03 0.78883073E+02</pdfrwt>
<pdfrwt beam="2">  1       -2 0.65999928E-01 0.78883073E+02</pdfrwt>
<totfact> 0.58436288E+04</totfact>
</mgrwt>
</event>
<event>
 5      1 +7.5707000e+03 7.93117300e+01 7.54677100e-03 1.33101600e-01
        1 -1    0    0  501    0 +0.0000000000e+00 +0.0000000000e+00 +5.1330051275e+00 5.1330051275e+00 0.0000000000e+00 0.0000e+00 -1.0000e+00
       -2 -1    0    0    0  501 -0.0000000000e+00 -0.0000000000e+00 -3.0636781156e+02 3.0636781156e+02 0.0000000000e+00 0.0000e+00 1.0000e+00
      -24  2    1    2    0    0 +0.0000000000e+00 +0.0000000000e+00 -3.0123480643e+02 3.1150081669e+02 7.9311727951e+01 0.0000e+00 0.0000e+00
       13  1    3    3    0    0 -8.1862544513e+00 -6.1095688910e+00 -1.2271066784e-01 1.0215510358e+01 0.0000000000e+00 0.0000e+00 -1.0000e+00
      -14  1    3    3    0    0 +8.1862544513e+00 +6.1095688910e+00 -3.0111209577e+02 3.0128530633e+02 0.0000000000e+00 0.0000e+00 1.0000e+00
<mgrwt>
<rscale>  0 0.79311728E+02</rscale>
<asrwt>0</asrwt>
<pdfrwt beam="1">  1        1 0.78969284E-03 0.79311728E+02</pdfrwt>
<pdfrwt beam="2">  1       -2 0.47133525E-01 0.79311728E+02</pdfrwt>
<totfact> 0.71033429E+04</totfact>
</mgrwt>
</event>
<event>
 5      1 +7.5707000e+03 8.05981800e+01 7.54677100e-03 1.32736200e-01
        1 -1    0    0  501    0 +0.0000000000e+00 +0.0000000000e+00 +9.0681554610e+00 9.0681554610e+00 0.0000000000e+00 0.0000e+00 -1.0000e+00
       -2 -1    0    0    0  501 -0.0000000000e+00 -0.0000000000e+00 -1.7909006085e+02 1.7909006085e+02 0.0000000000e+00 0.0000e+00 1.0000e+00
      -24  2    1    2    0    0 +0.0000000000e+00 +0.0000000000e+00 -1.7002190538e+02 1.8815821631e+02 8.0598176487e+01 0.0000e+00 0.0000e+00
       11  1    3    3    0    0 -4.6306181501e+00 +3.2853457902e+01 -3.1610876145e+01 4.5826191324e+01 0.0000000000e+00 0.0000e+00 -1.0000e+00
      -12  1    3    3    0    0 +4.6306181501e+00 -3.2853457902e+01 -1.3841102924e+02 1.4233202498e+02 0.0000000000e+00 0.0000e+00 1.0000e+00
<mgrwt>
<rscale>  0 0.80598176E+02</rscale>
<asrwt>0</asrwt>
<pdfrwt beam="1">  1        1 0.13951009E-02 0.80598176E+02</pdfrwt>
<pdfrwt beam="2">  1       -2 0.27552316E-01 0.80598176E+02</pdfrwt>
<totfact> 0.87128670E+04</totfact>
</mgrwt>
</event>
<event>
 5      1 +7.5707000e+03 8.05527400e+01 7.54677100e-03 1.32749000e-01
       -2 -1    0    0    0  501 -0.0000000000e+00 +0.0000000000e+00 +2.5598594490e+01 2.5598594490e+01 0.0000000000e+00 0.0000e+00 1.0000e+00
        1 -1    0    0  501    0 +0.0000000000e+00 -0.0000000000e+00 -6.3370118177e+01 6.3370118177e+01 0.0000000000e+00 0.0000e+00 -1.0000e+00
      -24  2    1    2    0    0 +0.0000000000e+00 +0.0000000000e+00 -3.7771523687e+01 8.8968712668e+01 8.0552739445e+01 0.0000e+00 0.0000e+00
       13  1    3    3    0    0 -2.5737898952e+01 +1.3274227182e+01 -4.9802094276e+01 5.7609835480e+01 0.0000000000e+00 0.0000e+00 -1.0000e+00
      -14  1    3    3    0    0 +2.5737898952e+01 -1.3274227182e+01 +1.2030570589e+01 3.1358877187e+01 0.0000000000e+00 0.0000e+00 1.0000e+00
<mgrwt>
<rscale>  0 0.80552739E+02</rscale>
<asrwt>0</asrwt>
<pdfrwt beam="1">  1        1 0.97492488E-02 0.80552739E+02</pdfrwt>
<pdfrwt beam="2">  1       -2 0.39382454E-02 0.80552739E+02</pdfrwt>
<totfact> 0.13398678E+05</totfact>
</mgrwt>
</event>
<event>
 5      1 +7.5707000e+03 7.85600400e+01 7.54677100e-03 1.33318800e-01
       -2 -1    0    0    0  501 -0.0000000000e+00 +0.0000000000e+00 +1.8342815201e+01 1.8342815201e+01 0.0000000000e+00 0.0000e+00 1.0000e+00
        1 -1    0    0  501    0 +0.0000000000e+00 -0.0000000000e+00 -8.4115764309e+01 8.4115764309e+01 0.0000000000e+00 0.0000e+00 -1.0000e+00
      -24  2    1    2    0    0 +0.0000000000e+00 +0.0000000000e+00 -6.5772949108e+01 1.0245857951e+02 7.8560038701e+01 0.0000e+00 0.0000e+00
       13  1    3    3    0    0 +3.2106008562e+01 -2.2033895406e+01 -3.9616941111e+01 5.5549890689e+01 0.0000000000e+00 0.0000e+00 -1.0000e+00
      -14  1    3    3    0    0 -3.2106008562e+01 +2.2033895406e+01 -2.6156007996e+01 4.6908688820e+01 0.0000000000e+00 0.0000e+00 1.0000e+00
<mgrwt>
<rscale>  0 0.78560039E+02</rscale>
<asrwt>0</asrwt>
<pdfrwt beam="1">  1        1 0.12940887E-01 0.78560039E+02</pdfrwt>
<pdfrwt beam="2">  1       -2 0.28219716E-02 0.78560039E+02</pdfrwt>
<totfact> 0.15006992E+05</totfact>
</mgrwt>
</event>
<event>
 5      1 +7.5707000e+03 8.00785200e+01 7.54677100e-03 1.32882900e-01
        1 -1    0    0  501    0 +0.0000000000e+00 +0.0000000000e+00 +1.4015541243e+02 1.4015541243e+02 0.0000000000e+00 0.0000e+00 -1.0000e+00
       -2 -1    0    0    0  501 -0.0000000000e+00 -0.0000000000e+00 -1.1438318386e+01 1.1438318386e+01 0.0000000000e+00 0.0000e+00 1.0000e+00
      -24  2    1    2    0    0 +0.0000000000e+00 +0.0000000000e+00 +1.2871709405e+02 1.5159373082e+02 8.0078517243e+01 0.0000e+00 0.0000e+00
       13  1    3    3    0    0 +2.0902726672e+01 -1.9867222248e+01 +1.1694047243e+02 1.2044378188e+02 0.0000000000e+00 0.0000e+00 -1.0000e+00
      -14  1    3    3    0    0 -2.0902726672e+01 +1.9867222248e+01 +1.1776621620e+01 3.1149948940e+01 0.0000000000e+00 0.0000e+00 1.0000e+00
<mgrwt>
<rscale>  0 0.80078517E+02</rscale>
<asrwt>0</asrwt>
<pdfrwt beam="1">  1        1 0.21562370E-01 0.80078517E+02</pdfrwt>
<pdfrwt beam="2">  1       -2 0.17597414E-02 0.80078517E+02</pdfrwt>
<totfact> 0.15552386E+05</totfact>
</mgrwt>
</event>
<event>
 4      1 +7.5707000e+03 1.61585800e+02 7.54677100e-03 1.18691800e-01
        1 -1    0    0  501    0 +0.0000000000e+00 +0.0000000000e+00 +1.2531029226e+01 1.2531029226e+01 0.0000000000e+00 0.0000e+00 -1.0000e+00
       -2 -1    0    0    0  501 -0.0000000000e+00 -0.0000000000e+00 -5.2090633326e+02 5.2090633326e+02 0.0000000000e+00 0.0000e+00 1.0000e+00
       11  1    1    2    0    0 +7.5075504300e+01 +2.9850379012e+01 -2.5306321866e+02 2.6564707623e+02 0.0000000000e+00 0.0000e+00 -1.0000e+00
      -12  1    1    2    0    0 -7.5075504300e+01 -2.9850379012e+01 -2.5531208538e+02 2.6779028626e+02 0.0000000000e+00 0.0000e+00 1.0000e+00
<mgrwt>
<rscale>  0 0.16158580E+03</rscale>
<asrwt>0</asrwt>
<pdfrwt beam="1">  1        1 0.19278506E-02 0.16158580E+03</pdfrwt>
<pdfrwt beam="2">  1       -2 0.80139436E-01 0.16158580E+03</pdfrwt>
<totfact> 0.75692701E+03</totfact>
</mgrwt>
</event>
<event>
 5      1 +7.5707000e+03 8.08494100e+01 7.54677100e-03 1.32665800e-01
       -2 -1    0    0    0  501 -0.0000000000e+00 +0.0000000000e+00 +1.0723727708e+01 1.0723727708e+01 0.0000000000e+00 0.0000e+00 1.0000e+00
        1 -1    0    0  501    0 +0.0000000000e+00 -0.0000000000e+00 -1.5238700907e+02 1.5238700907e+02 0.0000000000e+00 0.0000e+00 -1.0000e+00
      -24  2    1    2    0    0 +0.0000000000e+00 +0.0000000000e+00 -1.4166328137e+02 1.6311073678e+02 8.0849410425e+01 0.0000e+00 0.0000e+00
       13  1    3    3    0    0 -3.2270132158e+01 +3.6366459756e+00 -1.1940058946e+02 1.2373797876e+02 0.0000000000e+00 0.0000e+00 -1.0000e+00
      -14  1    3    3    0    0 +3.2270132158e+01 -3.6366459756e+00 -2.2262691903e+01 3.9372758021e+01 0.0000000000e+00 0.0000e+00 1.0000e+00
<mgrwt>
<rscale>  0 0.80849410E+02</rscale>
<asrwt>0</asrwt>
<pdfrwt beam="1">  1        1 0.23444156E-01 0.80849410E+02</pdfrwt>
<pdfrwt beam="2">  1       -2 0.16498042E-02 0.80849410E+02</pdfrwt>
<totfact> 0.15393845E+05</totfact>
</mgrwt>
</event>
<event>
 5      1 +7.5707000e+03 7.78776800e+01 7.54677100e-03 1.33518400e-01
       -2 -1    0    0    0  501 -0.0000000000e+00 +0.0000000000e+00 +1.5192175892e+02 1.5192175892e+02 0.0000000000e+00 0.0000e+00 1.0000e+00
        1 -1    0    0  501    0 +0.0000000000e+00 -0.0000000000e+00 -9.9803552510e+00 9.9803552510e+00 0.0000000000e+00 0.0000e+00 -1.0000e+00
      -24  2    1    2    0    0 +0.0000000000e+00 +0.0000000000e+00 +1.4194140367e+02 1.6190211417e+02 7.7877676503e+01 0.0000e+00 0.0000e+00
       13  1    3    3    0    0 -1.0029741862e+01 -2.1644975306e+01 +6.9906052190e+00 2.4858987090e+01 0.0000000000e+00 0.0000e+00 -1.0000e+00
      -14  1    3    3    0    0 +1.0029741862e+01 +2.1644975306e+01 +1.3495079845e+02 1.3704312708e+02 0.0000000000e+00 0.0000e+00 1.0000e+00
<mgrwt>
<rscale>  0 0.77877677E+02</rscale>
<asrwt>0</asrwt>
<pdfrwt beam="1">  1        1 0.15354394E-02 0.77877677E+02</pdfrwt>
<pdfrwt beam="2">  1       -2 0.23372577E-01 0.77877677E+02</pdfrwt>
<totfact> 0.10085276E+05</totfact>
</mgrwt>
</event>
<event>
 5      1 +7.5707000e+03 7.68053600e+01 7.54677100e-03 1.33837000e-01
       -2 -1    0    0    0  501 -0.0000000000e+00 +0.0000000000e+00 +3.8543098832e+01 3.8543098832e+01 0.0000000000e+00 0.0000e+00 1.0000e+00
        1 -1    0    0  501    0 +0.0000000000e+00 -0.0000000000e+00 -3.8262770930e+01 3.8262770930e+01 0.0000000000e+00 0.0000e+00 -1.0000e+00
      -24  2    1    2    0    0 +0.0000000000e+00 +0.0000000000e+00 +2.8032790133e-01 7.6805869762e+01 7.6805358187e+01 0.0000e+00 0.0000e+00
       11  1    3    3    0    0 -1.5739875965e+01 -2.7153632257e+01 +2.2269530072e+01 3.8483703171e+01 0.0000000000e+00 0.0000e+00 -1.0000e+00
      -12  1    3    3    0    0 +1.5739875965e+01 +2.7153632257e+01 -2.1989202170e+01 3.8322166591e+01 0.0000000000e+00 0.0000e+00 1.0000e+00
<mgrwt>
<rscale>  0 0.76805358E+02</rscale>
<asrwt>0</asrwt>
<pdfrwt beam="1">  1        1 0.58865802E-02 0.76805358E+02</pdfrwt>
<pdfrwt beam="2">  1       -2 0.59297075E-02 0.76805358E+02</pdfrwt>
<totfact> 0.14137740E+05</totfact>
</mgrwt>
</event>
<event>
 5      1 +7.5707000e+03 8.12757800e+01 7.54677100e-03 1.32546900e-01
       -4 -1    0    0    0  501 -0.0000000000e+00 +0.0000000000e+00 +1.6557246725e+01 1.6557246725e+01 0.0000000000e+00 0.0000e+00 1.0000e+00
        3 -1    0    0  501    0 +0.0000000000e+00 -0.0000000000e+00 -9.9741101048e+01 9.9741101048e+01 0.0000000000e+00 0.0000e+00 -1.0000e+00
      -24  2    1    2    0    0 +0.0000000000e+00 +0.0000000000e+00 -8.3183854323e+01 1.1629834777e+02 8.1275777908e+01 0.0000e+00 0.0000e+00
       11  1    3    3    0    0 +1.9450392866e+01 -2.6075208036e+01 -6.7409982523e+00 3.3221609145e+01 0.0000000000e+00 0.0000e+00 -1.0000e+00
      -12  1    3    3    0    0 -1.9450392866e+01 +2.6075208036e+01 -7.6442856071e+01 8.3076738627e+01 0.0000000000e+00 0.0000e+00 1.0000e+00
<mgrwt>
<rscale>  0 0.81275778E+02</rscale>
<asrwt>0</asrwt>
<pdfrwt beam="1">  1        3 0.15344785E-01 0.81275778E+02</pdfrwt>
<pdfrwt beam="2">  1       -4 0.25472687E-02 0.81275778E+02</pdfrwt>
<totfact> 0.40821332E+04</totfact>
</mgrwt>
</event>
<event>
 5      1 +7.5707000e+03 8.04233400e+01 7.54677100e-03 1.32785400e-01
       -2 -1    0    0    0  501 -0.0000000000e+00 +0.0000000000e+00 +2.3927461308e+01 2.3927461308e+01 0.0000000000e+00 0.0000e+00 1.0000e+00
        1 -1    0    0  501    0 +0.0000000000e+00 -0.0000000000e+00 -6.7578351525e+01 6.7578351525e+01 0.0000000000e+00 0.0000e+00 -1.0000e+00
      -24  2    1    2    0    0 +0.0000000000e+00 +0.0000000000e+00 -4.3650890217e+01 9.1505812833e+01 8.0423339681e+01 0.0000e+00 0.0000e+00
       13  1    3    3    0    0 +1.1251380009e+01 -3.0533349830e+01 -4.8705017298e+01 5.8575231233e+01 0.0000000000e+00 0.0000e+00 -1.0000e+00
      -14  1    3    3    0    0 -1.1251380009e+01 +3.0533349830e+01 +5.0541270814e+00 3.2930581600e+01 0.0000000000e+00 0.0000e+00 1.0000e+00
<mgrwt>
<rscale>  0 0.80423340E+02</rscale>
<asrwt>0</asrwt>
<pdfrwt beam="1">  1        1 0.10396669E-01 0.80423340E+02</pdfrwt>
<pdfrwt beam="2">  1       -2 0.36811479E-02 0.80423340E+02</pdfrwt>
<totfact> 0.13595435E+05</totfact>
</mgrwt>
</event>
<event>
 5      1 +7.5707000e+03 6.62087800e+01 7.54677100e-03 1.37348100e-01
       -4 -1    0    0    0  501 -0.0000000000e+00 +0.0000000000e+00 +2.1519196587e+02 2.1519196587e+02 0.0000000000e+00 0.0000e+00 1.0000e+00
        3 -1    0    0  501    0 +0.0000000000e+00 -0.0000000000e+00 -5.0926645600e+00 5.0926645600e+00 0.0000000000e+00 0.0000e+00 -1.0000e+00
      -24  2    1    2    0    0 +0.0000000000e+00 +0.0000000000e+00 +2.1009930131e+02 2.2028463043e+02 6.6208775799e+01 0.0000e+00 0.0000e+00
       11  1    3    3    0    0 +3.2228876632e+01 -6.0072025747e+00 +8.9761708618e+01 9.5561243744e+01 0.0000000000e+00 0.0000e+00 -1.0000e+00
      -12  1    3    3    0    0 -3.2228876632e+01 +6.0072025747e+00 +1.2033759269e+02 1.2472338669e+02 0.0000000000e+00 0.0000e+00 1.0000e+00
<mgrwt>
<rscale>  0 0.66208776E+02</rscale>
<asrwt>0</asrwt>
<pdfrwt beam="1">  1        3 0.78348702E-03 0.66208776E+02</pdfrwt>
<pdfrwt beam="2">  1       -4 0.33106449E-01 0.66208776E+02</pdfrwt>
<totfact> 0.52370205E+04</totfact>
</mgrwt>
</event>
<event>
 5      1 +7.5707000e+03 8.28255000e+01 7.54677100e-03 1.32121900e-01
        1 -1    0    0  501    0 +0.0000000000e+00 +0.0000000000e+00 +3.7637087303e+01 3.7637087303e+01 0.0000000000e+00 0.0000e+00 -1.0000e+00
       -2 -1    0    0    0  501 -0.0000000000e+00 -0.0000000000e+00 -4.5567178708e+01 4.5567178708e+01 0.0000000000e+00 0.0000e+00 1.0000e+00
      -24  2    1    2    0    0 +0.0000000000e+00 +0.0000000000e+00 -7.9300914053e+00 8.3204266010e+01 8.2825500497e+01 0.0000e+00 0.0000e+00
       13  1    3    3    0    0 -9.3671428938e+00 -1.1585628031e+01 +3.4851606944e+01 3.7902567847e+01 0.0000000000e+00 0.0000e+00 -1.0000e+00
      -14  1    3    3    0    0 +9.3671428938e+00 +1.1585628031e+01 -4.2781698349e+01 4.5301698163e+01 0.0000000000e+00 0.0000e+00 1.0000e+00
<mgrwt>
<rscale>  0 0.82825500E+02</rscale>
<asrwt>0</asrwt>
<pdfrwt beam="1">  1        1 0.57903212E-02 0.82825500E+02</pdfrwt>
<pdfrwt beam="2">  1       -2 0.70103351E-02 0.82825500E+02</pdfrwt>
<totfact> 0.11392144E+05</totfact>
</mgrwt>
</event>
<event>
 5      1 +7.5707000e+03 7.33523800e+01 7.54677100e-03 1.34905000e-01
       -2 -1    0    0    0  501 -0.0000000000e+00 +0.0000000000e+00 +1.7701267260e+02 1.7701267260e+02 0.0000000000e+00 0.0000e+00 1.0000e+00
        1 -1    0    0  501    0 +0.0000000000e+00 -0.0000000000e+00 -7.5991340741e+00 7.5991340741e+00 0.0000000000e+00 0.0000e+00 -1.0000e+00
      -24  2    1    2    0    0 +0.0000000000e+00 +0.0000000000e+00 +1.6941353852e+02 1.8461180667e+02 7.3352383244e+01 0.0000e+00 0.0000e+00
       13  1    3    3    0    0 +2.6297532825e+01 -7.4990316200e+00 +2.3194931151e+01 3.5858061005e+01 0.0000000000e+00 0.0000e+00 -1.0000e+00
      -14  1    3    3    0    0 -2.6297532825e+01 +7.4990316200e+00 +1.4621860737e+02 1.4875374567e+02 0.0000000000e+00 0.0000e+00 1.0000e+00
<mgrwt>
<rscale>  0 0.73352383E+02</rscale>
<asrwt>0</asrwt>
<pdfrwt beam="1">  1        1 0.11690977E-02 0.73352383E+02</pdfrwt>
<pdfrwt beam="2">  1       -2 0.27232716E-01 0.73352383E+02</pdfrwt>
<totfact> 0.11147389E+05</totfact>
</mgrwt>
</event>
<event>
 5      1 +7.5707000e+03 7.99694700e+01 7.54677100e-03 1.32913800e-01
       -2 -1    0    0    0  501 -0.0000000000e+00 +0.0000000000e+00 +4.4041545064e+02 4.4041545064e+02 0.0000000000e+00 0.0000e+00 1.0000e+00
        1 -1    0    0  501    0 +0.0000000000e+00 -0.0000000000e+00 -3.6301612317e+00 3.6301612317e+00 0.0000000000e+00 0.0000e+00 -1.0000e+00
      -24  2    1    2    0    0 +0.0000000000e+00 +0.0000000000e+00 +4.3678528941e+02 4.4404561187e+02 7.9969471544e+01 0.0000e+00 0.0000e+00
       13  1    3    3    0    0 -1.7841257905e+01 -1.8209760751e+01 +4.7348799037e+01 5.3775595213e+01 0.0000000000e+00 0.0000e+00 -1.0000e+00
      -14  1    3    3    0    0 +1.7841257905e+01 +1.8209760751e+01 +3.8943649037e+02 3.9027001666e+02 0.0000000000e+00 0.0000e+00 1.0000e+00
<mgrwt>
<rscale>  0 0.79969472E+02</rscale>
<asrwt>0</asrwt>
<pdfrwt beam="1">  1        1 0.55848669E-03 0.79969472E+02</pdfrwt>
<pdfrwt beam="2">  1       -2 0.67756181E-01 0.79969472E+02</pdfrwt>
<totfact> 0.55379768E+04</totfact>
</mgrwt>
</event>
<event>
 5      1 +7.5707000e+03 8.00100700e+01 7.54677100e-03 1.32902300e-01
        1 -1    0    0  501    0 +0.0000000000e+00 +0.0000000000e+00 +9.2999472292e+01 9.2999472292e+01 0.0000000000e+00 0.0000e+00 -1.0000e+00
       -2 -1    0    0    0  501 -0.0000000000e+00 -0.0000000000e+00 -1.7208730604e+01 1.7208730604e+01 0.0000000000e+00 0.0000e+00 1.0000e+00
      -24  2    1    2    0    0 +0.0000000000e+00 +0.0000000000e+00 +7.5790741688e+01 1.1020820290e+02 8.0010070990e+01 0.0000e+00 0.0000e+00
       13  1    3    3    0    0 -2.4153703399e+01 +3.1677051728e+01 +4.2968700753e+01 5.8593056231e+01 0.0000000000e+00 0.0000e+00 -1.0000e+00
      -14  1    3    3    0    0 +2.4153703399e+01 -3.1677051728e+01 +3.2822040935e+01 5.1615146665e+01 0.0000000000e+00 0.0000e+00 1.0000e+00
<mgrwt>
<rscale>  0 0.80010071E+02</rscale>
<asrwt>0</asrwt>
<pdfrwt beam="1">  1        1 0.14307611E-01 0.80010071E+02</pdfrwt>
<pdfrwt beam="2">  1       -2 0.26474971E-02 0.80010071E+02</pdfrwt>
<totfact> 0.14517180E+05</totfact>
</mgrwt>
</event>
<event>
 5      1 +7.5707000e+03 8.23382600e+01 7.54677100e-03 1.32254400e-01
        1 -1    0    0  501    0 +0.0000000000e+00 +0.0000000000e+00 +8.0125365890e+01 8.0125365890e+01 0.0000000000e+00 0.0000e+00 -1.0000e+00
       -2 -1    0    0    0  501 -0.0000000000e+00 -0.0000000000e+00 -2.1153066340e+01 2.1153066340e+01 0.0000000000e+00 0.0000e+00 1.0000e+00
      -24  2    1    2    0    0 +0.0000000000e+00 +0.0000000000e+00 +5.8972299550e+01 1.0127843223e+02 8.2338257941e+01 0.0000e+00 0.0000e+00
       13  1    3    3    0    0 +2.5630480392e+01 +1.9885349090e+01 +6.0665586741e+01 6.8794346048e+01 0.0000000000e+00 0.0000e+00 -1.0000e+00
      -14  1    3    3    0    0 -2.5630480392e+01 -1.9885349090e+01 -1.6932871909e+00 3.2484086182e+01 0.0000000000e+00 0.0000e+00 1.0000e+00
<mgrwt>
<rscale>  0 0.82338258E+02</rscale>
<asrwt>0</asrwt>
<pdfrwt beam="1">  1        1 0.12326979E-01 0.82338258E+02</pdfrwt>
<pdfrwt beam="2">  1       -2 0.32543179E-02 0.82338258E+02</pdfrwt>
<totfact> 0.13101248E+05</totfact>
</mgrwt>
</event>
<event>
 5      1 +7.5707000e+03 7.76708200e+01 7.54677100e-03 1.33579400e-01
        1 -1    0    0  501    0 +0.0000000000e+00 +0.0000000000e+00 +3.8925459966e+01 3.8925459966e+01 0.0000000000e+00 0.0000e+00 -1.0000e+00
       -2 -1    0    0    0  501 -0.0000000000e+00 -0.0000000000e+00 -3.8745569725e+01 3.8745569725e+01 0.0000000000e+00 0.0000e+00 1.0000e+00
      -24  2    1    2    0    0 +0.0000000000e+00 +0.0000000000e+00 +1.7989024052e-01 7.7671029691e+01 7.7670821373e+01 0.0000e+00 0.0000e+00
       13  1    3    3    0    0 +3.1321586289e+01 -6.2997439562e+00 +2.2168513833e+01 3.8886649986e+01 0.0000000000e+00 0.0000e+00 -1.0000e+00
      -14  1    3    3    0    0 -3.1321586289e+01 +6.2997439562e+00 -2.1988623592e+01 3.8784379705e+01 0.0000000000e+00 0.0000e+00 1.0000e+00
<mgrwt>
<rscale>  0 0.77670821E+02</rscale>
<asrwt>0</asrwt>
<pdfrwt beam="1">  1        1 0.59885323E-02 0.77670821E+02</pdfrwt>
<pdfrwt beam="2">  1       -2 0.59608569E-02 0.77670821E+02</pdfrwt>
<totfact> 0.13737440E+05</totfact>
</mgrwt>
</event>
<event>
 5      1 +7.5707000e+03 7.86631400e+01 7.54677100e-03 1.33288900e-01
       -2 -1    0    0    0  501 -0.0000000000e+00 +0.0000000000e+00 +5.5250115138e+01 5.5250115138e+01 0.0000000000e+00 0.0000e+00 1.0000e+00
        1 -1    0    0  501    0 +0.0000000000e+00 -0.0000000000e+00 -2.7999438683e+01 2.7999438683e+01 0.0000000000e+00 0.0000e+00 -1.0000e+00
      -24  2    1    2    0    0 +0.0000000000e+00 +0.0000000000e+00 +2.7250676455e+01 8.3249553821e+01 7.8663135230e+01 0.0000e+00 0.0000e+00
       13  1    3    3    0    0 +2.7417887350e+01 +1.5199615243e+01 -1.1512532997e+01 3.3396216347e+01 0.0000000000e+00 0.0000e+00 -1.0000e+00
      -14  1    3    3    0    0 -2.7417887350e+01 -1.5199615243e+01 +3.8763209452e+01 4.9853337474e+01 0.0000000000e+00 0.0000e+00 1.0000e+00
<mgrwt>
<rscale>  0 0.78663135E+02</rscale>
<asrwt>0</asrwt>
<pdfrwt beam="1">  1        1 0.43076059E-02 0.78663135E+02</pdfrwt>
<pdfrwt beam="2">  1       -2 0.85000177E-02 0.78663135E+02</pdfrwt>
<totfact> 0.12540865E+05</totfact>
</mgrwt>
</event>
<event>
 5      1 +7.5707000e+03 7.95771300e+01 7.54677100e-03 1.33025600e-01
       -2 -1    0    0    0  501 -0.0000000000e+00 +0.0000000000e+00 +4.0353069684e+02 4.0353069684e+02 0.0000000000e+00 0.0000e+00 1.0000e+00
        1 -1    0    0  501    0 +0.0000000000e+00 -0.0000000000e+00 -3.9231958340e+00 3.9231958340e+00 0.0000000000e+00 0.0000e+00 -1.0000e+00
      -24  2    1    2    0    0 +0.0000000000e+00 +0.0000000000e+00 +3.9960750101e+02 4.0745389268e+02 7.9577131106e+01 0.0000e+00 0.0000e+00
       13  1    3    3    0    0 +1.6259916502e+01 +1.7885737435e+01 +3.7981087663e+01 4.5020523190e+01 0.0000000000e+00 0.0000e+00 -1.0000e+00
      -14  1    3    3    0    0 -1.6259916502e+01 -1.7885737435e+01 +3.6162641335e+02 3.6243336949e+02 0.0000000000e+00 0.0000e+00 1.0000e+00
<mgrwt>
<rscale>  0 0.79577131E+02</rscale>
<asrwt>0</asrwt>
<pdfrwt beam="1">  1        1 0.60356891E-03 0.79577131E+02</pdfrwt>
<pdfrwt beam="2">  1       -2 0.62081613E-01 0.79577131E+02</pdfrwt>
<totfact> 0.59559254E+04</totfact>
</mgrwt>
</event>
<event>
 5      1 +7.5707000e+03 8.28659300e+01 7.54677100e-03 1.32111000e-01
        1 -1    0    0  501    0 +0.0000000000e+00 +0.0000000000e+00 +1.5814048677e+02 1.5814048677e+02 0.0000000000e+00 0.0000e+00 -1.0000e+00
       -2 -1    0    0    0  501 -0.0000000000e+00 -0.0000000000e+00 -1.0855476852e+01 1.0855476852e+01 0.0000000000e+00 0.0000e+00 1.0000e+00
      -24  2    1    2    0    0 +0.0000000000e+00 +0.0000000000e+00 +1.4728500992e+02 1.6899596362e+02 8.2865925291e+01 0.0000e+00 0.0000e+00
       11  1    3    3    0    0 +3.7697223736e+01 +1.3397221369e+01 +9.5619163983e+01 1.0365129396e+02 0.0000000000e+00 0.0000e+00 -1.0000e+00
      -12  1    3    3    0    0 -3.7697223736e+01 -1.3397221369e+01 +5.1665845937e+01 6.5344669669e+01 0.0000000000e+00 0.0000e+00 1.0000e+00
<mgrwt>
<rscale>  0 0.82865925E+02</rscale>
<asrwt>0</asrwt>
<pdfrwt beam="1">  1        1 0.24329304E-01 0.82865925E+02</pdfrwt>
<pdfrwt beam="2">  1       -2 0.16700735E-02 0.82865925E+02</pdfrwt>
<totfact> 0.14511696E+05</totfact>
</mgrwt>
</event>
<event>
 5      1 +7.5707000e+03 7.89681500e+01 7.54677100e-03 1.33200500e-01
        1 -1    0    0  501    0 +0.0000000000e+00 +0.0000000000e+00 +1.7439406613e+02 1.7439406613e+02 0.0000000000e+00 0.0000e+00 -1.0000e+00
       -2 -1    0    0    0  501 -0.0000000000e+00 -0.0000000000e+00 -8.9394788258e+00 8.9394788258e+00 0.0000000000e+00 0.0000e+00 1.0000e+00
      -24  2    1    2    0    0 +0.0000000000e+00 +0.0000000000e+00 +1.6545458731e+02 1.8333354496e+02 7.8968147035e+01 0.0000e+00 0.0000e+00
       13  1    3    3    0    0 -3.4226122270e+01 -1.5201257059e+01 +5.3685175495e+01 6.5456884510e+01 0.0000000000e+00 0.0000e+00 -1.0000e+00
      -14  1    3    3    0    0 +3.4226122270e+01 +1.5201257059e+01 +1.1176941181e+02 1.1787666045e+02 0.0000000000e+00 0.0000e+00 1.0000e+00
<mgrwt>
<rscale>  0 0.78968147E+02</rscale>
<asrwt>0</asrwt>
<pdfrwt beam="1">  1        1 0.26829854E-01 0.78968147E+02</pdfrwt>
<pdfrwt beam="2">  1       -2 0.13753046E-02 0.78968147E+02</pdfrwt>
<totfact> 0.16810868E+05</totfact>
</mgrwt>
</event>
<event>
 5      1 +7.5707000e+03 6.82386800e+01 7.54677100e-03 1.36618700e-01
       -2 -1    0    0    0  501 -0.0000000000e+00 +0.0000000000e+00 +1.1128902438e+01 1.1128902438e+01 0.0000000000e+00 0.0000e+00 1.0000e+00
        1 -1    0    0  501    0 +0.0000000000e+00 -0.0000000000e+00 -1.0460415284e+02 1.0460415284e+02 0.0000000000e+00 0.0000e+00 -1.0000e+00
      -24  2    1    2    0    0 +0.0000000000e+00 +0.0000000000e+00 -9.3475250400e+01 1.1573305528e+02 6.8238681450e+01 0.0000e+00 0.0000e+00
       13  1    3    3    0    0 -2.7606209167e+01 +1.6958764266e+01 -6.4879866409e+01 7.2519649305e+01 0.0000000000e+00 0.0000e+00 -1.0000e+00
      -14  1    3    3    0    0 +2.7606209167e+01 -1.6958764266e+01 -2.8595383990e+01 4.3213405970e+01 0.0000000000e+00 0.0000e+00 1.0000e+00
<mgrwt>
<rscale>  0 0.68238681E+02</rscale>
<asrwt>0</asrwt>
<pdfrwt beam="1">  1        1 0.16092947E-01 0.68238681E+02</pdfrwt>
<pdfrwt beam="2">  1       -2 0.17121387E-02 0.68238681E+02</pdfrwt>
<totfact> 0.22638218E+05</totfact>
</mgrwt>
</event>
<event>
 5      1 +7.5707000e+03 8.08931700e+01 7.54677100e-03 1.32653600e-01
       -2 -1    0    0    0  501 -0.0000000000e+00 +0.0000000000e+00 +3.7395694575e+00 3.7395694575e+00 0.0000000000e+00 0.0000e+00 1.0000e+00
        1 -1    0    0  501    0 +0.0000000000e+00 -0.0000000000e+00 -4.3746377796e+02 4.3746377796e+02 0.0000000000e+00 0.0000e+00 -1.0000e+00
      -24  2    1    2    0    0 +0.0000000000e+00 +0.0000000000e+00 -4.3372420850e+02 4.4120334741e+02 8.0893168631e+01 0.0000e+00 0.0000e+00
       13  1    3    3    0    0 +3.1597097427e+01 +2.4067675337e+01 -1.7521846819e+02 1.7966396733e+02 0.0000000000e+00 0.0000e+00 -1.0000e+00
      -14  1    3    3    0    0 -3.1597097427e+01 -2.4067675337e+01 -2.5850574031e+02 2.6153938008e+02 0.0000000000e+00 0.0000e+00 1.0000e+00
<mgrwt>
<rscale>  0 0.80893169E+02</rscale>
<asrwt>0</asrwt>
<pdfrwt beam="1">  1        1 0.67302099E-01 0.80893169E+02</pdfrwt>
<pdfrwt beam="2">  1       -2 0.57531856E-03 0.80893169E+02</pdfrwt>
<totfact> 0.18707597E+05</totfact>
</mgrwt>
</event>
<event>
 5      1 +7.5707000e+03 7.78156800e+01 7.54677100e-03 1.33536700e-01
       -2 -1    0    0    0  501 -0.0000000000e+00 +0.0000000000e+00 +1.3948184547e+01 1.3948184547e+01 0.0000000000e+00 0.0000e+00 1.0000e+00
        1 -1    0    0  501    0 +0.0000000000e+00 -0.0000000000e+00 -1.0853168699e+02 1.0853168699e+02 0.0000000000e+00 0.0000e+00 -1.0000e+00
      -24  2    1    2    0    0 +0.0000000000e+00 +0.0000000000e+00 -9.4583502441e+01 1.2247987153e+02 7.7815679635e+01 0.0000e+00 0.0000e+00
       13  1    3    3    0    0 +3.7570695962e+01 -8.1178104503e+00 -5.6783214655e+01 6.8569596092e+01 0.0000000000e+00 0.0000e+00 -1.0000e+00
      -14  1    3    3    0    0 -3.7570695962e+01 +8.1178104503e+00 -3.7800287786e+01 5.3910275443e+01 0.0000000000e+00 0.0000e+00 1.0000e+00
<mgrwt>
<rscale>  0 0.77815680E+02</rscale>
<asrwt>0</asrwt>
<pdfrwt beam="1">  1        1 0.16697182E-01 0.77815680E+02</pdfrwt>
<pdfrwt beam="2">  1       -2 0.21458746E-02 0.77815680E+02</pdfrwt>
<totfact> 0.16057548E+05</totfact>
</mgrwt>
</event>
<event>
 5      1 +7.5707000e+03 7.93810200e+01 7.54677100e-03 1.33081700e-01
        3 -1    0    0  501    0 +0.0000000000e+00 +0.0000000000e+00 +5.1955610390e+00 5.1955610390e+00 0.0000000000e+00 0.0000e+00 -1.0000e+00
       -4 -1    0    0    0  501 -0.0000000000e+00 -0.0000000000e+00 -3.0320816432e+02 3.0320816432e+02 0.0000000000e+00 0.0000e+00 1.0000e+00
      -24  2    1    2    0    0 +0.0000000000e+00 +0.0000000000e+00 -2.9801260328e+02 3.0840372536e+02 7.9381018519e+01 0.0000e+00 0.0000e+00
       11  1    3    3    0    0 -5.3667241115e+00 +8.8105937409e+00 -1.0438724826e-01 1.0316936874e+01 0.0000000000e+00 0.0000e+00 -1.0000e+00
      -12  1    3    3    0    0 +5.3667241115e+00 -8.8105937409e+00 -2.9790821603e+02 2.9808678849e+02 0.0000000000e+00 0.0000e+00 1.0000e+00
<mgrwt>
<rscale>  0 0.79381019E+02</rscale>
<asrwt>0</asrwt>
<pdfrwt beam="1">  1        3 0.79931700E-03 0.79381019E+02</pdfrwt>
<pdfrwt beam="2">  1       -4 0.46647415E-01 0.79381019E+02</pdfrwt>
<totfact> 0.27803450E+04</totfact>
</mgrwt>
</event>
<event>
 5      1 +7.5707000e+03 8.23230300e+01 7.54677100e-03 1.32258500e-01
       -2 -1    0    0    0  501 -0.0000000000e+00 +0.0000000000e+00 +2.8644052811e+01 2.8644052811e+01 0.0000000000e+00 0.0000e+00 1.0000e+00
        1 -1    0    0  501    0 +0.0000000000e+00 -0.0000000000e+00 -5.9149107947e+01 5.9149107947e+01 0.0000000000e+00 0.0000e+00 -1.0000e+00
      -24  2    1    2    0    0 +0.0000000000e+00 +0.0000000000e+00 -3.0505055137e+01 8.7793160758e+01 8.2323026469e+01 0.0000e+00 0.0000e+00
       11  1    3    3    0    0 +7.0688893735e+00 -3.5165037156e+01 -3.6786342182e+01 5.1378828386e+01 0.0000000000e+00 0.0000e+00 -1.0000e+00
      -12  1    3    3    0    0 -7.0688893735e+00 +3.5165037156e+01 +6.2812870457e+00 3.6414332372e+01 0.0000000000e+00 0.0000e+00 1.0000e+00
<mgrwt>
<rscale>  0 0.82323026E+02</rscale>
<asrwt>0</asrwt>
<pdfrwt beam="1">  1        1 0.90998627E-02 0.82323026E+02</pdfrwt>
<pdfrwt beam="2">  1       -2 0.44067774E-02 0.82323026E+02</pdfrwt>
<totfact> 0.12480360E+05</totfact>
</mgrwt>
</event>
<event>
 5      1 +7.5707000e+03 8.14179400e+01 7.54677100e-03 1.32507500e-01
        1 -1    0    0  501    0 +0.0000000000e+00 +0.0000000000e+00 +6.3471844632e+00 6.3471844632e+00 0.0000000000e+00 0.0000e+00 -1.0000e+00
       -2 -1    0    0    0  501 -0.0000000000e+00 -0.0000000000e+00 -2.6109531438e+02 2.6109531438e+02 0.0000000000e+00 0.0000e+00 1.0000e+00
      -24  2    1    2    0    0 +0.0000000000e+00 +0.0000000000e+00 -2.5474812991e+02 2.6744249884e+02 8.1417937159e+01 0.0000e+00 0.0000e+00
       11  1    3    3    0    0 +3.1243015969e+01 -8.2524390543e+00 -4.6046552064e+01 5.6254011005e+01 0.0000000000e+00 0.0000e+00 -1.0000e+00
      -12  1    3    3    0    0 -3.1243015969e+01 +8.2524390543e+00 -2.0870157785e+02 2.1118848783e+02 0.0000000000e+00 0.0000e+00 1.0000e+00
<mgrwt>
<rscale>  0 0.81417937E+02</rscale>
<asrwt>0</asrwt>
<pdfrwt beam="1">  1        1 0.97648982E-03 0.81417937E+02</pdfrwt>
<pdfrwt beam="2">  1       -2 0.40168514E-01 0.81417937E+02</pdfrwt>
<totfact> 0.72157827E+04</totfact>
</mgrwt>
</event>
<event>
 5      1 +7.5707000e+03 8.27160100e+01 7.54677100e-03 1.32151600e-01
       -2 -1    0    0    0  501 -0.0000000000e+00 +0.0000000000e+00 +1.9820500616e+01 1.9820500616e+01 0.0000000000e+00 0.0000e+00 1.0000e+00
        1 -1    0    0  501    0 +0.0000000000e+00 -0.0000000000e+00 -8.6298750852e+01 8.6298750852e+01 0.0000000000e+00 0.0000e+00 -1.0000e+00
      -24  2    1    2    0    0 +0.0000000000e+00 +0.0000000000e+00 -6.6478250235e+01 1.0611925147e+02 8.2716006781e+01 0.0000e+00 0.0000e+00
       13  1    3    3    0    0 -1.1112553173e+01 +2.6242119372e+01 -7.1691806099e+01 7.7148251625e+01 0.0000000000e+00 0.0000e+00 -1.0000e+00
      -14  1    3    3    0    0 +1.1112553173e+01 -2.6242119372e+01 +5.2135558632e+00 2.8970999843e+01 0.0000000000e+00 0.0000e+00 1.0000e+00
<mgrwt>
<rscale>  0 0.82716007E+02</rscale>
<asrwt>0</asrwt>
<pdfrwt beam="1">  1        1 0.13276731E-01 0.82716007E+02</pdfrwt>
<pdfrwt beam="2">  1       -2 0.30493078E-02 0.82716007E+02</pdfrwt>
<totfact> 0.13098255E+05</totfact>
</mgrwt>
</event>
<event>
 5      1 +7.5707000e+03 8.14059400e+01 7.54677100e-03 1.32510800e-01
       -2 -1    0    0    0  501 -0.0000000000e+00 +0.0000000000e+00 +3.2148986577e+01 3.2148986577e+01 0.0000000000e+00 0.0000e+00 1.0000e+00
        1 -1    0    0  501    0 +0.0000000000e+00 -0.0000000000e+00 -5.1532939172e+01 5.1532939172e+01 0.0000000000e+00 0.0000e+00 -1.0000e+00
      -24  2    1    2    0    0 +0.0000000000e+00 +0.0000000000e+00 -1.9383952594e+01 8.3681925749e+01 8.1405940071e+01 0.0000e+00 0.0000e+00
       13  1    3    3    0    0 -3.3192028075e+01 -1.3255680340e+01 -2.9712321440e+01 4.6478444836e+01 0.0000000000e+00 0.0000e+00 -1.0000e+00
      -14  1    3    3    0    0 +3.3192028075e+01 +1.3255680340e+01 +1.0328368846e+01 3.7203480913e+01 0.0000000000e+00 0.0000e+00 1.0000e+00
<mgrwt>
<rscale>  0 0.81405940E+02</rscale>
<asrwt>0</asrwt>
<pdfrwt beam="1">  1        1 0.79281444E-02 0.81405940E+02</pdfrwt>
<pdfrwt beam="2">  1       -2 0.49459980E-02 0.81405940E+02</pdfrwt>
<totfact> 0.12594376E+05</totfact>
</mgrwt>
</event>
<event>
 5      1 +7.5707000e+03 8.04804800e+01 7.54677100e-03 1.32769300e-01
       -2 -1    0    0    0  501 -0.0000000000e+00 +0.0000000000e+00 +7.9171341053e+00 7.9171341053e+00 0.0000000000e+00 0.0000e+00 1.0000e+00
        1 -1    0    0  501    0 +0.0000000000e+00 -0.0000000000e+00 -2.0452815477e+02 2.0452815477e+02 0.0000000000e+00 0.0000e+00 -1.0000e+00
      -24  2    1    2    0    0 +0.0000000000e+00 +0.0000000000e+00 -1.9661102067e+02 2.1244528888e+02 8.0480477873e+01 0.0000e+00 0.0000e+00
       13  1    3    3    0    0 +1.8875711484e+01 +3.5405395352e+01 -1.0641691455e+02 1.1372947818e+02 0.0000000000e+00 0.0000e+00 -1.0000e+00
      -14  1    3    3    0    0 -1.8875711484e+01 -3.5405395352e+01 -9.0194106118e+01 9.8715810701e+01 0.0000000000e+00 0.0000e+00 1.0000e+00
<mgrwt>
<rscale>  0 0.80480478E+02</rscale>
<asrwt>0</asrwt>
<pdfrwt beam="1">  1        1 0.31465865E-01 0.80480478E+02</pdfrwt>
<pdfrwt beam="2">  1       -2 0.12180208E-02 0.80480478E+02</pdfrwt>
<totfact> 0.16482485E+05</totfact>
</mgrwt>
</event>
<event>
 5      1 +7.5707000e+03 8.07831000e+01 7.54677100e-03 1.32684400e-01
       -2 -1    0    0    0  501 -0.0000000000e+00 +0.0000000000e+00 +1.3304166687e+02 1.3304166687e+02 0.0000000000e+00 0.0000e+00 1.0000e+00
        1 -1    0    0  501    0 +0.0000000000e+00 -0.0000000000e+00 -1.2262905685e+01 1.2262905685e+01 0.0000000000e+00 0.0000e+00 -1.0000e+00
      -24  2    1    2    0    0 +0.0000000000e+00 +0.0000000000e+00 +1.2077876119e+02 1.4530457256e+02 8.0783102516e+01 0.0000e+00 0.0000e+00
       11  1    3    3    0    0 +1.4487044381e+00 -3.3468826500e+01 +1.9800234922e+01 3.8914141322e+01 0.0000000000e+00 0.0000e+00 -1.0000e+00
      -12  1    3    3    0    0 -1.4487044381e+00 +3.3468826500e+01 +1.0097852627e+02 1.0639043124e+02 0.0000000000e+00 0.0000e+00 1.0000e+00
<mgrwt>
<rscale>  0 0.80783103E+02</rscale>
<asrwt>0</asrwt>
<pdfrwt beam="1">  1        1 0.18866010E-02 0.80783103E+02</pdfrwt>
<pdfrwt beam="2">  1       -2 0.20467948E-01 0.80783103E+02</pdfrwt>
<totfact> 0.95723778E+04</totfact>
</mgrwt>
</event>
<event>
 5      1 +7.5707000e+03 8.16837400e+01 7.54677100e-03 1.32434000e-01
        3 -1    0    0  501    0 +0.0000000000e+00 +0.0000000000e+00 +2.9263136507e+01 2.9263136507e+01 0.0000000000e+00 0.0000e+00 -1.0000e+00
       -4 -1    0    0    0  501 -0.0000000000e+00 -0.0000000000e+00 -5.7002036959e+01 5.7002036959e+01 0.0000000000e+00 0.0000e+00 1.0000e+00
      -24  2    1    2    0    0 +0.0000000000e+00 +0.0000000000e+00 -2.7738900452e+01 8.6265173466e+01 8.1683741068e+01 0.0000e+00 0.0000e+00
       13  1    3    3    0    0 -3.4169889246e+01 +2.2326950952e+01 -1.5357116797e+01 4.3610951677e+01 0.0000000000e+00 0.0000e+00 -1.0000e+00
      -14  1    3    3    0    0 +3.4169889246e+01 -2.2326950952e+01 -1.2381783655e+01 4.2654221789e+01 0.0000000000e+00 0.0000e+00 1.0000e+00
<mgrwt>
<rscale>  0 0.81683741E+02</rscale>
<asrwt>0</asrwt>
<pdfrwt beam="1">  1        3 0.45020210E-02 0.81683741E+02</pdfrwt>
<pdfrwt beam="2">  1       -4 0.87695441E-02 0.81683741E+02</pdfrwt>
<totfact> 0.41642202E+04</totfact>
</mgrwt>
</event>
<event>
 5      1 +7.5707000e+03 8.07238300e+01 7.54677100e-03 1.32701000e-01
        3 -1    0    0  501    0 +0.0000000000e+00 +0.0000000000e+00 +1.0651336341e+01 1.0651336341e+01 0.0000000000e+00 0.0000e+00 -1.0000e+00
       -4 -1    0    0    0  501 -0.0000000000e+00 -0.0000000000e+00 -1.5294644511e+02 1.5294644511e+02 0.0000000000e+00 0.0000e+00 1.0000e+00
      -24  2    1    2    0    0 +0.0000000000e+00 +0.0000000000e+00 -1.4229510877e+02 1.6359778145e+02 8.0723826199e+01 0.0000e+00 0.0000e+00
       13  1    3    3    0    0 -5.3834883609e+00 -2.3798905343e+01 -5.9883294896e+00 2.5124289692e+01 0.0000000000e+00 0.0000e+00 -1.0000e+00
      -14  1    3    3    0    0 +5.3834883609e+00 +2.3798905343e+01 -1.3630677928e+02 1.3847349176e+02 0.0000000000e+00 0.0000e+00 1.0000e+00
<mgrwt>
<rscale>  0 0.80723826E+02</rscale>
<asrwt>0</asrwt>
<pdfrwt beam="1">  1        3 0.16386674E-02 0.80723826E+02</pdfrwt>
<pdfrwt beam="2">  1       -4 0.23530218E-01 0.80723826E+02</pdfrwt>
<totfact> 0.35309953E+04</totfact>
</mgrwt>
</event>
<event>
 5      1 +7.5707000e+03 8.01539800e+01 7.54677100e-03 1.32861500e-01
       -2 -1    0    0    0  501 -0.0000000000e+00 +0.0000000000e+00 +7.9319732361e+00 7.9319732361e+00 0.0000000000e+00 0.0000e+00 1.0000e+00
        1 -1    0    0  501    0 +0.0000000000e+00 -0.0000000000e+00 -2.0249252079e+02 2.0249252079e+02 0.0000000000e+00 0.0000e+00 -1.0000e+00
      -24  2    1    2    0    0 +0.0000000000e+00 +0.0000000000e+00 -1.9456054755e+02 2.1042449403e+02 8.0153983193e+01 0.0000e+00 0.0000e+00
       11  1    3    3    0    0 +3.1679603813e+01 +1.9694972518e+01 -1.3574502652e+02 1.4077713403e+02 0.0000000000e+00 0.0000e+00 -1.0000e+00
      -12  1    3    3    0    0 -3.1679603813e+01 -1.9694972518e+01 -5.8815521034e+01 6.9647359998e+01 0.0000000000e+00 0.0000e+00 1.0000e+00
<mgrwt>
<rscale>  0 0.80153983E+02</rscale>
<asrwt>0</asrwt>
<pdfrwt beam="1">  1        1 0.31152695E-01 0.80153983E+02</pdfrwt>
<pdfrwt beam="2">  1       -2 0.12203036E-02 0.80153983E+02</pdfrwt>
<totfact> 0.16628967E+05</totfact>
</mgrwt>
</event>
<event>
 5      1 +7.5707000e+03 7.96651900e+01 7.54677100e-03 1.33000400e-01
       -2 -1    0    0    0  501 -0.0000000000e+00 +0.0000000000e+00 +5.2892993854e+02 5.2892993854e+02 0.0000000000e+00 0.0000e+00 1.0000e+00
        1 -1    0    0  501    0 +0.0000000000e+00 -0.0000000000e+00 -2.9997082508e+00 2.9997082508e+00 0.0000000000e+00 0.0000e+00 -1.0000e+00
      -24  2    1    2    0    0 +0.0000000000e+00 +0.0000000000e+00 +5.2593023029e+02 5.3192964679e+02 7.9665186894e+01 0.0000e+00 0.0000e+00
       11  1    3    3    0    0 +3.1796896394e+01 +1.8913088625e+01 +1.6440476622e+02 1.6851609626e+02 0.0000000000e+00 0.0000e+00 -1.0000e+00
      -12  1    3    3    0    0 -3.1796896394e+01 -1.8913088625e+01 +3.6152546406e+02 3.6341355053e+02 0.0000000000e+00 0.0000e+00 1.0000e+00
<mgrwt>
<rscale>  0 0.79665187E+02</rscale>
<asrwt>0</asrwt>
<pdfrwt beam="1">  1        1 0.46149400E-03 0.79665187E+02</pdfrwt>
<pdfrwt beam="2">  1       -2 0.81373763E-01 0.79665187E+02</pdfrwt>
<totfact> 0.48748374E+04</totfact>
</mgrwt>
</event>
<event>
 5      1 +7.5707000e+03 8.08244900e+01 7.54677100e-03 1.32672800e-01
       -2 -1    0    0    0  501 -0.0000000000e+00 +0.0000000000e+00 +6.3557315129e+00 6.3557315129e+00 0.0000000000e+00 0.0000e+00 1.0000e+00
        1 -1    0    0  501    0 +0.0000000000e+00 -0.0000000000e+00 -2.5695696338e+02 2.5695696338e+02 0.0000000000e+00 0.0000e+00 -1.0000e+00
      -24  2    1    2    0    0 +0.0000000000e+00 +0.0000000000e+00 -2.5060123187e+02 2.6331269489e+02 8.0824488111e+01 0.0000e+00 0.0000e+00
       11  1    3    3    0    0 +5.3562369802e+00 +3.9252288629e+01 -1.5130580487e+02 1.5640613168e+02 0.0000000000e+00 0.0000e+00 -1.0000e+00
      -12  1    3    3    0    0 -5.3562369802e+00 -3.9252288629e+01 -9.9295426994e+01 1.0690656322e+02 0.0000000000e+00 0.0000e+00 1.0000e+00
<mgrwt>
<rscale>  0 0.80824488E+02</rscale>
<asrwt>0</asrwt>
<pdfrwt beam="1">  1        1 0.39531848E-01 0.80824488E+02</pdfrwt>
<pdfrwt beam="2">  1       -2 0.97780467E-03 0.80824488E+02</pdfrwt>
<totfact> 0.17040217E+05</totfact>
</mgrwt>
</event>
<event>
 5      1 +7.5707000e+03 8.08893900e+01 7.54677100e-03 1.32654600e-01
        1 -1    0    0  501    0 +0.0000000000e+00 +0.0000000000e+00 +1.3955477289e+02 1.3955477289e+02 0.0000000000e+00 0.0000e+00 -1.0000e+00
       -2 -1    0    0    0  501 -0.0000000000e+00 -0.0000000000e+00 -1.1721371936e+01 1.1721371936e+01 0.0000000000e+00 0.0000e+00 1.0000e+00
      -24  2    1    2    0    0 +0.0000000000e+00 +0.0000000000e+00 +1.2783340096e+02 1.5127614483e+02 8.0889391110e+01 0.0000e+00 0.0000e+00
       13  1    3    3    0    0 +2.9634410275e+01 -2.3668910373e+01 +9.0189481035e+01 9.7839450530e+01 0.0000000000e+00 0.0000e+00 -1.0000e+00
      -14  1    3    3    0    0 -2.9634410275e+01 +2.3668910373e+01 +3.7643919923e+01 5.3436694300e+01 0.0000000000e+00 0.0000e+00 1.0000e+00
<mgrwt>
<rscale>  0 0.80889391E+02</rscale>
<asrwt>0</asrwt>
<pdfrwt beam="1">  1        1 0.21469964E-01 0.80889391E+02</pdfrwt>
<pdfrwt beam="2">  1       -2 0.18032881E-02 0.80889391E+02</pdfrwt>
<totfact> 0.15126439E+05</totfact>
</mgrwt>
</event>
<event>
 5      1 +7.5707000e+03 7.95959500e+01 7.54677100e-03 1.33020200e-01
        3 -1    0    0  501    0 +0.0000000000e+00 +0.0000000000e+00 +2.6867645820e+01 2.6867645820e+01 0.0000000000e+00 0.0000e+00 -1.0000e+00
       -4 -1    0    0    0  501 -0.0000000000e+00 -0.0000000000e+00 -5.8951154040e+01 5.8951154040e+01 0.0000000000e+00 0.0000e+00 1.0000e+00
      -24  2    1    2    0    0 +0.0000000000e+00 +0.0000000000e+00 -3.2083508220e+01 8.5818799860e+01 7.9595947822e+01 0.0000e+00 0.0000e+00
       13  1    3    3    0    0 -1.2457294693e+01 +2.4516516603e+01 +1.4976038595e+01 3.1313343951e+01 0.0000000000e+00 0.0000e+00 -1.0000e+00
      -14  1    3    3    0    0 +1.2457294693e+01 -2.4516516603e+01 -4.7059546814e+01 5.4505455909e+01 0.0000000000e+00 0.0000e+00 1.0000e+00
<mgrwt>
<rscale>  0 0.79595948E+02</rscale>
<asrwt>0</asrwt>
<pdfrwt beam="1">  1        3 0.41334840E-02 0.79595948E+02</pdfrwt>
<pdfrwt beam="2">  1       -4 0.90694083E-02 0.79595948E+02</pdfrwt>
<totfact> 0.44606095E+04</totfact>
</mgrwt>
</event>
<event>
 5      1 +7.5707000e+03 5.27081400e+01 7.54677100e-03 1.43125900e-01
       -2 -1    0    0    0  501 -0.0000000000e+00 +0.0000000000e+00 +4.3562687739e+00 4.3562687739e+00 0.0000000000e+00 0.0000e+00 1.0000e+00
        1 -1    0    0  501    0 +0.0000000000e+00 -0.0000000000e+00 -1.5943394183e+02 1.5943394183e+02 0.0000000000e+00 0.0000e+00 -1.0000e+00
      -24  2    1    2    0    0 +0.0000000000e+00 +0.0000000000e+00 -1.5507767306e+02 1.6379021061e+02 5.2708143671e+01 0.0000e+00 0.0000e+00
       13  1    3    3    0    0 +1.5290630489e+01 -1.5037752450e+01 -1.2513522140e+02 1.2695968263e+02 0.0000000000e+00 0.0000e+00 -1.0000e+00
      -14  1    3    3    0    0 -1.5290630489e+01 +1.5037752450e+01 -2.9942451661e+01 3.6830527975e+01 0.0000000000e+00 0.0000e+00 1.0000e+00
<mgrwt>
<rscale>  0 0.52708144E+02</rscale>
<asrwt>0</asrwt>
<pdfrwt beam="1">  1        1 0.24528298E-01 0.52708144E+02</pdfrwt>
<pdfrwt beam="2">  1       -2 0.67019523E-03 0.52708144E+02</pdfrwt>
<totfact> 0.47236724E+05</totfact>
</mgrwt>
</event>
<event>
 5      1 +7.5707000e+03 8.13121800e+01 7.54677100e-03 1.32536800e-01
       -2 -1    0    0    0  501 -0.0000000000e+00 +0.0000000000e+00 +8.6008850353e+00 8.6008850353e+00 0.0000000000e+00 0.0000e+00 1.0000e+00
        1 -1    0    0  501    0 +0.0000000000e+00 -0.0000000000e+00 -1.9217993210e+02 1.9217993210e+02 0.0000000000e+00 0.0000e+00 -1.0000e+00
      -24  2    1    2    0    0 +0.0000000000e+00 +0.0000000000e+00 -1.8357904706e+02 2.0078081713e+02 8.1312176260e+01 0.0000e+00 0.0000e+00
       11  1    3    3    0    0 +1.4546542417e+01 -3.6640091878e+01 -1.1633590390e+02 1.2283379325e+02 0.0000000000e+00 0.0000e+00 -1.0000e+00
      -12  1    3    3    0    0 -1.4546542417e+01 +3.6640091878e+01 -6.7243143164e+01 7.7947023880e+01 0.0000000000e+00 0.0000e+00 1.0000e+00
<mgrwt>
<rscale>  0 0.81312176E+02</rscale>
<asrwt>0</asrwt>
<pdfrwt beam="1">  1        1 0.29566143E-01 0.81312176E+02</pdfrwt>
<pdfrwt beam="2">  1       -2 0.13232131E-02 0.81312176E+02</pdfrwt>
<totfact> 0.15844970E+05</totfact>
</mgrwt>
</event>
<event>
 5      1 +7.5707000e+03 7.75810800e+01 7.54677100e-03 1.33606000e-01
       -2 -1    0    0    0  501 -0.0000000000e+00 +0.0000000000e+00 +3.2616040392e+01 3.2616040392e+01 0.0000000000e+00 0.0000e+00 1.0000e+00
        1 -1    0    0  501    0 +0.0000000000e+00 -0.0000000000e+00 -4.6133928374e+01 4.6133928374e+01 0.0000000000e+00 0.0000e+00 -1.0000e+00
      -24  2    1    2    0    0 +0.0000000000e+00 +0.0000000000e+00 -1.3517887983e+01 7.8749968766e+01 7.7581082005e+01 0.0000e+00 0.0000e+00
       13  1    3    3    0    0 -3.3855045824e+01 +5.1654511971e+00 +1.1732552096e+01 3.6200812042e+01 0.0000000000e+00 0.0000e+00 -1.0000e+00
      -14  1    3    3    0    0 +3.3855045824e+01 -5.1654511971e+00 -2.5250440079e+01 4.2549156724e+01 0.0000000000e+00 0.0000e+00 1.0000e+00
<mgrwt>
<rscale>  0 0.77581082E+02</rscale>
<asrwt>0</asrwt>
<pdfrwt beam="1">  1        1 0.70975274E-02 0.77581082E+02</pdfrwt>
<pdfrwt beam="2">  1       -2 0.50178524E-02 0.77581082E+02</pdfrwt>
<totfact> 0.14151299E+05</totfact>
</mgrwt>
</event>
<event>
 5      1 +7.5707000e+03 8.01609700e+01 7.54677100e-03 1.32859500e-01
        1 -1    0    0  501    0 +0.0000000000e+00 +0.0000000000e+00 +3.5541960920e+02 3.5541960920e+02 0.0000000000e+00 0.0000e+00 -1.0000e+00
       -2 -1    0    0    0  501 -0.0000000000e+00 -0.0000000000e+00 -4.5198554456e+00 4.5198554456e+00 0.0000000000e+00 0.0000e+00 1.0000e+00
      -24  2    1    2    0    0 +0.0000000000e+00 +0.0000000000e+00 +3.5089975375e+02 3.5993946464e+02 8.0160969458e+01 0.0000e+00 0.0000e+00
       13  1    3    3    0    0 -3.8414566166e+01 +6.7763196213e+00 +1.3408926655e+02 1.3964787433e+02 0.0000000000e+00 0.0000e+00 -1.0000e+00
      -14  1    3    3    0    0 +3.8414566166e+01 -6.7763196213e+00 +2.1681048720e+02 2.2029159031e+02 0.0000000000e+00 0.0000e+00 1.0000e+00
<mgrwt>
<rscale>  0 0.80160969E+02</rscale>
<asrwt>0</asrwt>
<pdfrwt beam="1">  1        1 0.54679918E-01 0.80160969E+02</pdfrwt>
<pdfrwt beam="2">  1       -2 0.69536265E-03 0.80160969E+02</pdfrwt>
<totfact> 0.18515894E+05</totfact>
</mgrwt>
</event>
<event>
 5      1 +7.5707000e+03 7.89843400e+01 7.54677100e-03 1.33195900e-01
        1 -1    0    0  501    0 +0.0000000000e+00 +0.0000000000e+00 +8.5608850922e+01 8.5608850922e+01 0.0000000000e+00 0.0000e+00 -1.0000e+00
       -2 -1    0    0    0  501 -0.0000000000e+00 -0.0000000000e+00 -1.8218112621e+01 1.8218112621e+01 0.0000000000e+00 0.0000e+00 1.0000e+00
      -24  2    1    2    0    0 +0.0000000000e+00 +0.0000000000e+00 +6.7390738300e+01 1.0382696354e+02 7.8984344967e+01 0.0000e+00 0.0000e+00
       11  1    3    3    0    0 +3.0562440795e+01 +9.7624577305e+00 +6.3965543700e+01 7.1560877224e+01 0.0000000000e+00 0.0000e+00 -1.0000e+00
      -12  1    3    3    0    0 -3.0562440795e+01 -9.7624577305e+00 +3.4251946002e+00 3.2266086319e+01 0.0000000000e+00 0.0000e+00 1.0000e+00
<mgrwt>
<rscale>  0 0.78984345E+02</rscale>
<asrwt>0</asrwt>
<pdfrwt beam="1">  1        1 0.13170592E-01 0.78984345E+02</pdfrwt>
<pdfrwt beam="2">  1       -2 0.28027866E-02 0.78984345E+02</pdfrwt>
<totfact> 0.14831413E+05</totfact>
</mgrwt>
</event>
<event>
 5      1 +7.5707000e+03 8.00849400e+01 7.54677100e-03 1.32881100e-01
       -2 -1    0    0    0  501 -0.0000000000e+00 +0.0000000000e+00 +5.9297603907e+01 5.9297603907e+01 0.0000000000e+00 0.0000e+00 1.0000e+00
        1 -1    0    0  501    0 +0.0000000000e+00 -0.0000000000e+00 -2.7039866083e+01 2.7039866083e+01 0.0000000000e+00 0.0000e+00 -1.0000e+00
      -24  2    1    2    0    0 +0.0000000000e+00 +0.0000000000e+00 +3.2257737824e+01 8.6337469990e+01 8.0084936628e+01 0.0000e+00 0.0000e+00
       13  1    3    3    0    0 -1.1833712913e+01 -2.1287255551e+01 -1.8136502511e+01 3.0366375047e+01 0.0000000000e+00 0.0000e+00 -1.0000e+00
      -14  1    3    3    0    0 +1.1833712913e+01 +2.1287255551e+01 +5.0394240335e+01 5.5971094943e+01 0.0000000000e+00 0.0000e+00 1.0000e+00
<mgrwt>
<rscale>  0 0.80084937E+02</rscale>
<asrwt>0</asrwt>
<pdfrwt beam="1">  1        1 0.41599794E-02 0.80084937E+02</pdfrwt>
<pdfrwt beam="2">  1       -2 0.91227083E-02 0.80084937E+02</pdfrwt>
<totfact> 0.11833118E+05</totfact>
</mgrwt>
</event>
<event>
 5      1 +7.5707000e+03 8.09184800e+01 7.54677100e-03 1.32646500e-01
       -2 -1    0    0    0  501 -0.0000000000e+00 +0.0000000000e+00 +6.5296580108e+00 6.5296580108e+00 0.0000000000e+00 0.0000e+00 1.0000e+00
        1 -1    0    0  501    0 +0.0000000000e+00 -0.0000000000e+00 -2.5069462685e+02 2.5069462685e+02 0.0000000000e+00 0.0000e+00 -1.0000e+00
      -24  2    1    2    0    0 +0.0000000000e+00 +0.0000000000e+00 -2.4416496884e+02 2.5722428486e+02 8.0918481906e+01 0.0000e+00 0.0000e+00
       11  1    3    3    0    0 +3.1587237352e+01 -2.3369146417e+01 -9.1414056028e+01 9.9500754807e+01 0.0000000000e+00 0.0000e+00 -1.0000e+00
      -12  1    3    3    0    0 -3.1587237352e+01 +2.3369146417e+01 -1.5275091281e+02 1.5772353005e+02 0.0000000000e+00 0.0000e+00 1.0000e+00
<mgrwt>
<rscale>  0 0.80918482E+02</rscale>
<asrwt>0</asrwt>
<pdfrwt beam="1">  1        1 0.38568404E-01 0.80918482E+02</pdfrwt>
<pdfrwt beam="2">  1       -2 0.10045628E-02 0.80918482E+02</pdfrwt>
<totfact> 0.16906294E+05</totfact>
</mgrwt>
</event>
<event>
 5      1 +7.5707000e+03 8.14694000e+01 7.54677100e-03 1.32493200e-01
       -2 -1    0    0    0  501 -0.0000000000e+00 +0.0000000000e+00 +1.1366393594e+02 1.1366393594e+02 0.0000000000e+00 0.0000e+00 1.0000e+00
        1 -1    0    0  501    0 +0.0000000000e+00 -0.0000000000e+00 -1.4598435101e+01 1.4598435101e+01 0.0000000000e+00 0.0000e+00 -1.0000e+00
      -24  2    1    2    0    0 +0.0000000000e+00 +0.0000000000e+00 +9.9065500835e+01 1.2826237104e+02 8.1469395288e+01 0.0000e+00 0.0000e+00
       11  1    3    3    0    0 +1.0846433037e+01 +3.3461958973e+01 +1.7192422520e+01 3.9152614217e+01 0.0000000000e+00 0.0000e+00 -1.0000e+00
      -12  1    3    3    0    0 -1.0846433037e+01 -3.3461958973e+01 +8.1873078315e+01 8.9109756821e+01 0.0000000000e+00 0.0000e+00 1.0000e+00
<mgrwt>
<rscale>  0 0.81469395E+02</rscale>
<asrwt>0</asrwt>
<pdfrwt beam="1">  1        1 0.22459132E-02 0.81469395E+02</pdfrwt>
<pdfrwt beam="2">  1       -2 0.17486759E-01 0.81469395E+02</pdfrwt>
<totfact> 0.97981484E+04</totfact>
</mgrwt>
</event>
<event>
 5      1 +7.5707000e+03 8.05728400e+01 7.54677100e-03 1.32743400e-01
       -2 -1    0    0    0  501 -0.0000000000e+00 +0.0000000000e+00 +3.3690098376e+02 3.3690098376e+02 0.0000000000e+00 0.0000e+00 1.0000e+00
        1 -1    0    0  501    0 +0.0000000000e+00 -0.0000000000e+00 -4.8174266836e+00 4.8174266836e+00 0.0000000000e+00 0.0000e+00 -1.0000e+00
      -24  2    1    2    0    0 +0.0000000000e+00 +0.0000000000e+00 +3.3208355707e+02 3.4171841044e+02 8.0572843784e+01 0.0000e+00 0.0000e+00
       11  1    3    3    0    0 -3.6034842723e+01 -1.7423843381e+01 +1.4665494386e+02 1.5201898818e+02 0.0000000000e+00 0.0000e+00 -1.0000e+00
      -12  1    3    3    0    0 +3.6034842723e+01 +1.7423843381e+01 +1.8542861321e+02 1.8969942226e+02 0.0000000000e+00 0.0000e+00 1.0000e+00
<mgrwt>
<rscale>  0 0.80572844E+02</rscale>
<asrwt>0</asrwt>
<pdfrwt beam="1">  1        1 0.74114283E-03 0.80572844E+02</pdfrwt>
<pdfrwt beam="2">  1       -2 0.51830902E-01 0.80572844E+02</pdfrwt>
<totfact> 0.64596052E+04</totfact>
</mgrwt>
</event>
<event>
 5      1 +7.5707000e+03 8.09364100e+01 7.54677100e-03 1.32641500e-01
       -4 -1    0    0    0  501 -0.0000000000e+00 +0.0000000000e+00 +4.8391170849e+00 4.8391170849e+00 0.0000000000e+00 0.0000e+00 1.0000e+00
        3 -1    0    0  501    0 +0.0000000000e+00 -0.0000000000e+00 -3.3842450240e+02 3.3842450240e+02 0.0000000000e+00 0.0000e+00 -1.0000e+00
      -24  2    1    2    0    0 +0.0000000000e+00 +0.0000000000e+00 -3.3358538532e+02 3.4326361949e+02 8.0936414340e+01 0.0000e+00 0.0000e+00
       11  1    3    3    0    0 +3.9163272254e+01 -6.0433335890e+00 -2.0160942789e+02 2.0546689560e+02 0.0000000000e+00 0.0000e+00 -1.0000e+00
      -12  1    3    3    0    0 -3.9163272254e+01 +6.0433335890e+00 -1.3197595743e+02 1.3779672389e+02 0.0000000000e+00 0.0000e+00 1.0000e+00
<mgrwt>
<rscale>  0 0.80936414E+02</rscale>
<asrwt>0</asrwt>
<pdfrwt beam="1">  1        3 0.52065301E-01 0.80936414E+02</pdfrwt>
<pdfrwt beam="2">  1       -4 0.74447966E-03 0.80936414E+02</pdfrwt>
<totfact> 0.28060152E+04</totfact>
</mgrwt>
</event>
<event>
 5      1 +7.5707000e+03 7.98168000e+01 7.54677100e-03 1.32957200e-01
       -2 -1    0    0    0  501 -0.0000000000e+00 +0.0000000000e+00 +1.6496568345e+01 1.6496568345e+01 0.0000000000e+00 0.0000e+00 1.0000e+00
        1 -1    0    0  501    0 +0.0000000000e+00 -0.0000000000e+00 -9.6546165113e+01 9.6546165113e+01 0.0000000000e+00 0.0000e+00 -1.0000e+00
      -24  2    1    2    0    0 +0.0000000000e+00 +0.0000000000e+00 -8.0049596768e+01 1.1304273346e+02 7.9816800517e+01 0.0000e+00 0.0000e+00
       13  1    3    3    0    0 +1.4493170160e+01 -1.9862826038e+01 -8.4544068116e+01 8.8047051586e+01 0.0000000000e+00 0.0000e+00 -1.0000e+00
      -14  1    3    3    0    0 -1.4493170160e+01 +1.9862826038e+01 +4.4944713480e+00 2.4995681871e+01 0.0000000000e+00 0.0000e+00 1.0000e+00
<mgrwt>
<rscale>  0 0.79816801E+02</rscale>
<asrwt>0</asrwt>
<pdfrwt beam="1">  1        1 0.14853256E-01 0.79816801E+02</pdfrwt>
<pdfrwt beam="2">  1       -2 0.25379336E-02 0.79816801E+02</pdfrwt>
<totfact> 0.14703713E+05</totfact>
</mgrwt>
</event>
<event>
 5      1 +7.5707000e+03 7.86529100e+01 7.54677100e-03 1.33291800e-01
        1 -1    0    0  501    0 +0.0000000000e+00 +0.0000000000e+00 +1.5813731578e+02 1.5813731578e+02 0.0000000000e+00 0.0000e+00 -1.0000e+00
       -2 -1    0    0    0  501 -0.0000000000e+00 -0.0000000000e+00 -9.7799194765e+00 9.7799194765e+00 0.0000000000e+00 0.0000e+00 1.0000e+00
      -24  2    1    2    0    0 +0.0000000000e+00 +0.0000000000e+00 +1.4835739630e+02 1.6791723525e+02 7.8652913856e+01 0.0000e+00 0.0000e+00
       11  1    3    3    0    0 -1.4717229246e+00 -3.4312816094e+01 +1.1507971809e+02 1.2009528230e+02 0.0000000000e+00 0.0000e+00 -1.0000e+00
      -12  1    3    3    0    0 +1.4717229246e+00 +3.4312816094e+01 +3.3277678215e+01 4.7821952951e+01 0.0000000000e+00 0.0000e+00 1.0000e+00
<mgrwt>
<rscale>  0 0.78652914E+02</rscale>
<asrwt>0</asrwt>
<pdfrwt beam="1">  1        1 0.24328816E-01 0.78652914E+02</pdfrwt>
<pdfrwt beam="2">  1       -2 0.15046031E-02 0.78652914E+02</pdfrwt>
<totfact> 0.16682376E+05</totfact>
</mgrwt>
</event>
<event>
 5      1 +7.5707000e+03 8.14471100e+01 7.54677100e-03 1.32499400e-01
        1 -1    0    0  501    0 +0.0000000000e+00 +0.0000000000e+00 +4.0572196219e+01 4.0572196219e+01 0.0000000000e+00 0.0000e+00 -1.0000e+00
       -2 -1    0    0    0  501 -0.0000000000e+00 -0.0000000000e+00 -4.0875477921e+01 4.0875477921e+01 0.0000000000e+00 0.0000e+00 1.0000e+00
      -24  2    1    2    0    0 +0.0000000000e+00 +0.0000000000e+00 -3.0328170282e-01 8.1447674140e+01 8.1447109482e+01 0.0000e+00 0.0000e+00
       11  1    3    3    0    0 +1.2266704088e+01 -3.8769927485e+01 -2.3490646407e+00 4.0732019482e+01 0.0000000000e+00 0.0000e+00 -1.0000e+00
      -12  1    3    3    0    0 -1.2266704088e+01 +3.8769927485e+01 +2.0457829378e+00 4.0715654658e+01 0.0000000000e+00 0.0000e+00 1.0000e+00
<mgrwt>
<rscale>  0 0.81447109E+02</rscale>
<asrwt>0</asrwt>
<pdfrwt beam="1">  1        1 0.62418764E-02 0.81447109E+02</pdfrwt>
<pdfrwt beam="2">  1       -2 0.62885350E-02 0.81447109E+02</pdfrwt>
<totfact> 0.12099449E+05</totfact>
</mgrwt>
</event>
<event>
 5      1 +7.5707000e+03 7.91229300e+01 7.54677100e-03 1.33155900e-01
       -2 -1    0    0    0  501 -0.0000000000e+00 +0.0000000000e+00 +4.0464320003e+00 4.0464320003e+00 0.0000000000e+00 0.0000e+00 1.0000e+00
        1 -1    0    0  501    0 +0.0000000000e+00 -0.0000000000e+00 -3.8678759029e+02 3.8678759029e+02 0.0000000000e+00 0.0000e+00 -1.0000e+00
      -24  2    1    2    0    0 +0.0000000000e+00 +0.0000000000e+00 -3.8274115829e+02 3.9083402229e+02 7.9122934290e+01 0.0000e+00 0.0000e+00
       11  1    3    3    0    0 +7.0343910430e+00 +3.8710503048e+01 -2.1181111712e+02 2.1543429402e+02 0.0000000000e+00 0.0000e+00 -1.0000e+00
      -12  1    3    3    0    0 -7.0343910430e+00 -3.8710503048e+01 -1.7093004117e+02 1.7539972827e+02 0.0000000000e+00 0.0000e+00 1.0000e+00
<mgrwt>
<rscale>  0 0.79122934E+02</rscale>
<asrwt>0</asrwt>
<pdfrwt beam="1">  1        1 0.59505787E-01 0.79122934E+02</pdfrwt>
<pdfrwt beam="2">  1       -2 0.62252796E-03 0.79122934E+02</pdfrwt>
<totfact> 0.19442653E+05</totfact>
</mgrwt>
</event>
<event>
 5      1 +7.5707000e+03 8.07804800e+01 7.54677100e-03 1.32685100e-01
       -2 -1    0    0    0  501 -0.0000000000e+00 +0.0000000000e+00 +2.4575528107e+01 2.4575528107e+01 0.0000000000e+00 0.0000e+00 1.0000e+00
        1 -1    0    0  501    0 +0.0000000000e+00 -0.0000000000e+00 -6.6381953735e+01 6.6381953735e+01 0.0000000000e+00 0.0000e+00 -1.0000e+00
      -24  2    1    2    0    0 +0.0000000000e+00 +0.0000000000e+00 -4.1806425628e+01 9.0957481843e+01 8.0780482045e+01 0.0000e+00 0.0000e+00
       11  1    3    3    0    0 -1.9561012416e+01 +8.7618585550e+00 -5.9450152247e+01 6.3195917386e+01 0.0000000000e+00 0.0000e+00 -1.0000e+00
      -12  1    3    3    0    0 +1.9561012416e+01 -8.7618585550e+00 +1.7643726619e+01 2.7761564457e+01 0.0000000000e+00 0.0000e+00 1.0000e+00
<mgrwt>
<rscale>  0 0.80780482E+02</rscale>
<asrwt>0</asrwt>
<pdfrwt beam="1">  1        1 0.10212608E-01 0.80780482E+02</pdfrwt>
<pdfrwt beam="2">  1       -2 0.37808505E-02 0.80780482E+02</pdfrwt>
<totfact> 0.13393042E+05</totfact>
</mgrwt>
</event>
<event>
 5      1 +7.5707000e+03 8.05667800e+01 7.54677100e-03 1.32745100e-01
       -2 -1    0    0    0  501 -0.0000000000e+00 +0.0000000000e+00 +9.1748448189e+00 9.1748448189e+00 0.0000000000e+00 0.0000e+00 1.0000e+00
        1 -1    0    0  501    0 +0.0000000000e+00 -0.0000000000e+00 -1.7686963129e+02 1.7686963129e+02 0.0000000000e+00 0.0000e+00 -1.0000e+00
      -24  2    1    2    0    0 +0.0000000000e+00 +0.0000000000e+00 -1.6769478648e+02 1.8604447611e+02 8.0566777776e+01 0.0000e+00 0.0000e+00
       13  1    3    3    0    0 -3.5834084820e+01 +1.7376945446e+01 -6.9855961438e+01 8.0410790422e+01 0.0000000000e+00 0.0000e+00 -1.0000e+00
      -14  1    3    3    0    0 +3.5834084820e+01 -1.7376945446e+01 -9.7838825038e+01 1.0563368569e+02 0.0000000000e+00 0.0000e+00 1.0000e+00
<mgrwt>
<rscale>  0 0.80566778E+02</rscale>
<asrwt>0</asrwt>
<pdfrwt beam="1">  1        1 0.27210712E-01 0.80566778E+02</pdfrwt>
<pdfrwt beam="2">  1       -2 0.14115146E-02 0.80566778E+02</pdfrwt>
<totfact> 0.15980348E+05</totfact>
</mgrwt>
</event>
<event>
 5      1 +7.5707000e+03 8.05359100e+01 7.54677100e-03 1.32753700e-01
        1 -1    0    0  501    0 +0.0000000000e+00 +0.0000000000e+00 +2.3185065233e+01 2.3185065233e+01 0.0000000000e+00 0.0000e+00 -1.0000e+00
       -2 -1    0    0    0  501 -0.0000000000e+00 -0.0000000000e+00 -6.9937619437e+01 6.9937619437e+01 0.0000000000e+00 0.0000e+00 1.0000e+00
      -24  2    1    2    0    0 +0.0000000000e+00 +0.0000000000e+00 -4.6752554204e+01 9.3122684670e+01 8.0535911713e+01 0.0000e+00 0.0000e+00
       11  1    3    3    0    0 +1.2608800568e+01 -2.6154424902e+01 +8.8854445023e+00 3.0364237479e+01 0.0000000000e+00 0.0000e+00 -1.0000e+00
      -12  1    3    3    0    0 -1.2608800568e+01 +2.6154424902e+01 -5.5637998707e+01 6.2758447191e+01 0.0000000000e+00 0.0000e+00 1.0000e+00
<mgrwt>
<rscale>  0 0.80535912E+02</rscale>
<asrwt>0</asrwt>
<pdfrwt beam="1">  1        1 0.35669331E-02 0.80535912E+02</pdfrwt>
<pdfrwt beam="2">  1       -2 0.10759634E-01 0.80535912E+02</pdfrwt>
<totfact> 0.11299902E+05</totfact>
</mgrwt>
</event>
<event>
 5      1 +7.5707000e+03 8.09354700e+01 7.54677100e-03 1.32641700e-01
        1 -1    0    0  501    0 +0.0000000000e+00 +0.0000000000e+00 +3.7851168511e+01 3.7851168511e+01 0.0000000000e+00 0.0000e+00 -1.0000e+00
       -2 -1    0    0    0  501 -0.0000000000e+00 -0.0000000000e+00 -4.3265182610e+01 4.3265182610e+01 0.0000000000e+00 0.0000e+00 1.0000e+00
      -24  2    1    2    0    0 +0.0000000000e+00 +0.0000000000e+00 -5.4140140988e+00 8.1116351121e+01 8.0935473499e+01 0.0000e+00 0.0000e+00
       11  1    3    3    0    0 -1.5177536719e+01 +9.1619700979e-01 +3.4879347346e+01 3.8049519170e+01 0.0000000000e+00 0.0000e+00 -1.0000e+00
      -12  1    3    3    0    0 +1.5177536719e+01 -9.1619700979e-01 -4.0293361444e+01 4.3066831951e+01 0.0000000000e+00 0.0000e+00 1.0000e+00
<mgrwt>
<rscale>  0 0.80935473E+02</rscale>
<asrwt>0</asrwt>
<pdfrwt beam="1">  1        1 0.58232567E-02 0.80935473E+02</pdfrwt>
<pdfrwt beam="2">  1       -2 0.66561819E-02 0.80935473E+02</pdfrwt>
<totfact> 0.12175999E+05</totfact>
</mgrwt>
</event>
<event>
 5      1 +7.5707000e+03 7.58294600e+01 7.54677100e-03 1.34132200e-01
        1 -1    0    0  501    0 +0.0000000000e+00 +0.0000000000e+00 +4.9272693165e+00 4.9272693165e+00 0.0000000000e+00 0.0000e+00 -1.0000e+00
       -2 -1    0    0    0  501 -0.0000000000e+00 -0.0000000000e+00 -2.9174914440e+02 2.9174914440e+02 0.0000000000e+00 0.0000e+00 1.0000e+00
      -24  2    1    2    0    0 +0.0000000000e+00 +0.0000000000e+00 -2.8682187508e+02 2.9667641371e+02 7.5829456210e+01 0.0000e+00 0.0000e+00
       11  1    3    3    0    0 +3.0180712456e+01 +2.0073332584e+01 -9.9894642862e+01 1.0626736921e+02 0.0000000000e+00 0.0000e+00 -1.0000e+00
      -12  1    3    3    0    0 -3.0180712456e+01 -2.0073332584e+01 -1.8692723222e+02 1.9040904451e+02 0.0000000000e+00 0.0000e+00 1.0000e+00
<mgrwt>
<rscale>  0 0.75829456E+02</rscale>
<asrwt>0</asrwt>
<pdfrwt beam="1">  1        1 0.75804171E-03 0.75829456E+02</pdfrwt>
<pdfrwt beam="2">  1       -2 0.44884467E-01 0.75829456E+02</pdfrwt>
<totfact> 0.81892917E+04</totfact>
</mgrwt>
</event>
<event>
 5      1 +7.5707000e+03 8.06505600e+01 7.54677100e-03 1.32721500e-01
        3 -1    0    0  501    0 +0.0000000000e+00 +0.0000000000e+00 +1.4749277363e+02 1.4749277363e+02 0.0000000000e+00 0.0000e+00 -1.0000e+00
       -4 -1    0    0    0  501 -0.0000000000e+00 -0.0000000000e+00 -1.1025138819e+01 1.1025138819e+01 0.0000000000e+00 0.0000e+00 1.0000e+00
      -24  2    1    2    0    0 +0.0000000000e+00 +0.0000000000e+00 +1.3646763481e+02 1.5851791245e+02 8.0650562403e+01 0.0000e+00 0.0000e+00
       13  1    3    3    0    0 -3.4281115157e+01 +1.2203950638e+01 +1.0239023265e+02 1.0866412016e+02 0.0000000000e+00 0.0000e+00 -1.0000e+00
      -14  1    3    3    0    0 +3.4281115157e+01 -1.2203950638e+01 +3.4077402158e+01 4.9853792287e+01 0.0000000000e+00 0.0000e+00 1.0000e+00
<mgrwt>
<rscale>  0 0.80650562E+02</rscale>
<asrwt>0</asrwt>
<pdfrwt beam="1">  1        3 0.22691195E-01 0.80650562E+02</pdfrwt>
<pdfrwt beam="2">  1       -4 0.16961753E-02 0.80650562E+02</pdfrwt>
<totfact> 0.38535215E+04</totfact>
</mgrwt>
</event>
<event>
 5      1 +7.5707000e+03 7.50339600e+01 7.54677100e-03 1.34376600e-01
        3 -1    0    0  501    0 +0.0000000000e+00 +0.0000000000e+00 +1.1964481083e+01 1.1964481083e+01 0.0000000000e+00 0.0000e+00 -1.0000e+00
       -4 -1    0    0    0  501 -0.0000000000e+00 -0.0000000000e+00 -1.1764184320e+02 1.1764184320e+02 0.0000000000e+00 0.0000e+00 1.0000e+00
      -24  2    1    2    0    0 +0.0000000000e+00 +0.0000000000e+00 -1.0567736212e+02 1.2960632428e+02 7.5033955180e+01 0.0000e+00 0.0000e+00
       11  1    3    3    0    0 -3.0632791558e+01 +1.6210802593e+01 -2.8025241258e+01 4.4570979201e+01 0.0000000000e+00 0.0000e+00 -1.0000e+00
      -12  1    3    3    0    0 +3.0632791558e+01 -1.6210802593e+01 -7.7652120858e+01 8.5035345081e+01 0.0000000000e+00 0.0000e+00 1.0000e+00
<mgrwt>
<rscale>  0 0.75033955E+02</rscale>
<asrwt>0</asrwt>
<pdfrwt beam="1">  1        3 0.18406893E-02 0.75033955E+02</pdfrwt>
<pdfrwt beam="2">  1       -4 0.18098746E-01 0.75033955E+02</pdfrwt>
<totfact> 0.46276801E+04</totfact>
</mgrwt>
</event>
<event>
 5      1 +7.5707000e+03 8.09428400e+01 7.54677100e-03 1.32639700e-01
       -4 -1    0    0    0  501 -0.0000000000e+00 +0.0000000000e+00 +1.3452343706e+02 1.3452343706e+02 0.0000000000e+00 0.0000e+00 1.0000e+00
        3 -1    0    0  501    0 +0.0000000000e+00 -0.0000000000e+00 -1.2175839024e+01 1.2175839024e+01 0.0000000000e+00 0.0000e+00 -1.0000e+00
      -24  2    1    2    0    0 +0.0000000000e+00 +0.0000000000e+00 +1.2234759804e+02 1.4669927609e+02 8.0942836981e+01 0.0000e+00 0.0000e+00
       13  1    3    3    0    0 -9.3736058985e+00 -3.8870739242e+01 +4.9835640455e+01 6.3893582747e+01 0.0000000000e+00 0.0000e+00 -1.0000e+00
      -14  1    3    3    0    0 +9.3736058985e+00 +3.8870739242e+01 +7.2511957585e+01 8.2805693341e+01 0.0000000000e+00 0.0000e+00 1.0000e+00
<mgrwt>
<rscale>  0 0.80942837E+02</rscale>
<asrwt>0</asrwt>
<pdfrwt beam="1">  1        3 0.18732061E-02 0.80942837E+02</pdfrwt>
<pdfrwt beam="2">  1       -4 0.20695912E-01 0.80942837E+02</pdfrwt>
<totfact> 0.36426420E+04</totfact>
</mgrwt>
</event>
<event>
 5      1 +7.5707000e+03 8.15924700e+01 7.54677100e-03 1.32459200e-01
        3 -1    0    0  501    0 +0.0000000000e+00 +0.0000000000e+00 +3.5313235950e+01 3.5313235950e+01 0.0000000000e+00 0.0000e+00 -1.0000e+00
       -4 -1    0    0    0  501 -0.0000000000e+00 -0.0000000000e+00 -4.7130567347e+01 4.7130567347e+01 0.0000000000e+00 0.0000e+00 1.0000e+00
      -24  2    1    2    0    0 +0.0000000000e+00 +0.0000000000e+00 -1.1817331397e+01 8.2443803296e+01 8.1592471348e+01 0.0000e+00 0.0000e+00
       11  1    3    3    0    0 +9.5255340785e+00 -1.3328937292e+01 +3.1843403348e+01 3.5810594879e+01 0.0000000000e+00 0.0000e+00 -1.0000e+00
      -12  1    3    3    0    0 -9.5255340785e+00 +1.3328937292e+01 -4.3660734745e+01 4.6633208417e+01 0.0000000000e+00 0.0000e+00 1.0000e+00
<mgrwt>
<rscale>  0 0.81592471E+02</rscale>
<asrwt>0</asrwt>
<pdfrwt beam="1">  1        3 0.54328055E-02 0.81592471E+02</pdfrwt>
<pdfrwt beam="2">  1       -4 0.72508565E-02 0.81592471E+02</pdfrwt>
<totfact> 0.42374901E+04</totfact>
</mgrwt>
</event>
<event>
 5      1 +7.5707000e+03 8.04373900e+01 7.54677100e-03 1.32781500e-01
       -2 -1    0    0    0  501 -0.0000000000e+00 +0.0000000000e+00 +5.2138971083e+01 5.2138971083e+01 0.0000000000e+00 0.0000e+00 1.0000e+00
        1 -1    0    0  501    0 +0.0000000000e+00 -0.0000000000e+00 -3.1023695570e+01 3.1023695570e+01 0.0000000000e+00 0.0000e+00 -1.0000e+00
      -24  2    1    2    0    0 +0.0000000000e+00 +0.0000000000e+00 +2.1115275514e+01 8.3162666653e+01 8.0437393449e+01 0.0000e+00 0.0000e+00
       11  1    3    3    0    0 +1.8832578985e+01 +1.0105913182e+01 -2.4666421241e+01 3.2637828502e+01 0.0000000000e+00 0.0000e+00 -1.0000e+00
      -12  1    3    3    0    0 -1.8832578985e+01 -1.0105913182e+01 +4.5781696755e+01 5.0524838151e+01 0.0000000000e+00 0.0000e+00 1.0000e+00
<mgrwt>
<rscale>  0 0.80437393E+02</rscale>
<asrwt>0</asrwt>
<pdfrwt beam="1">  1        1 0.47728762E-02 0.80437393E+02</pdfrwt>
<pdfrwt beam="2">  1       -2 0.80213802E-02 0.80437393E+02</pdfrwt>
<totfact> 0.11977624E+05</totfact>
</mgrwt>
</event>
<event>
 5      1 +7.5707000e+03 7.95302900e+01 7.54677100e-03 1.33039000e-01
       -4 -1    0    0    0  501 -0.0000000000e+00 +0.0000000000e+00 +3.0305029297e+01 3.0305029297e+01 0.0000000000e+00 0.0000e+00 1.0000e+00
        3 -1    0    0  501    0 +0.0000000000e+00 -0.0000000000e+00 -5.2178357285e+01 5.2178357285e+01 0.0000000000e+00 0.0000e+00 -1.0000e+00
      -24  2    1    2    0    0 +0.0000000000e+00 +0.0000000000e+00 -2.1873327988e+01 8.2483386582e+01 7.9530287216e+01 0.0000e+00 0.0000e+00
       13  1    3    3    0    0 +2.9322188989e+01 +1.9056460691e+01 +8.6957548939e+00 3.6035477163e+01 0.0000000000e+00 0.0000e+00 -1.0000e+00
      -14  1    3    3    0    0 -2.9322188989e+01 -1.9056460691e+01 -3.0569082882e+01 4.6447909419e+01 0.0000000000e+00 0.0000e+00 1.0000e+00
<mgrwt>
<rscale>  0 0.79530287E+02</rscale>
<asrwt>0</asrwt>
<pdfrwt beam="1">  1        3 0.80274396E-02 0.79530287E+02</pdfrwt>
<pdfrwt beam="2">  1       -4 0.46623122E-02 0.79530287E+02</pdfrwt>
<totfact> 0.45919335E+04</totfact>
</mgrwt>
</event>
<event>
 5      1 +7.5707000e+03 7.96592200e+01 7.54677100e-03 1.33002100e-01
        1 -1    0    0  501    0 +0.0000000000e+00 +0.0000000000e+00 +3.9627637406e+00 3.9627637406e+00 0.0000000000e+00 0.0000e+00 -1.0000e+00
       -2 -1    0    0    0  501 -0.0000000000e+00 -0.0000000000e+00 -4.0032611825e+02 4.0032611825e+02 0.0000000000e+00 0.0000e+00 1.0000e+00
      -24  2    1    2    0    0 +0.0000000000e+00 +0.0000000000e+00 -3.9636335451e+02 4.0428888199e+02 7.9659219826e+01 0.0000e+00 0.0000e+00
       11  1    3    3    0    0 -2.1406099155e+01 -2.6398547360e+01 -9.2781297169e+01 9.8810290396e+01 0.0000000000e+00 0.0000e+00 -1.0000e+00
      -12  1    3    3    0    0 +2.1406099155e+01 +2.6398547360e+01 -3.0358205734e+02 3.0547859159e+02 0.0000000000e+00 0.0000e+00 1.0000e+00
<mgrwt>
<rscale>  0 0.79659220E+02</rscale>
<asrwt>0</asrwt>
<pdfrwt beam="1">  1        1 0.60965594E-03 0.79659220E+02</pdfrwt>
<pdfrwt beam="2">  1       -2 0.61588635E-01 0.79659220E+02</pdfrwt>
<totfact> 0.59716570E+04</totfact>
</mgrwt>
</event>
<event>
 5      1 +7.5707000e+03 7.86221800e+01 7.54677100e-03 1.33300800e-01
       -2 -1    0    0    0  501 -0.0000000000e+00 +0.0000000000e+00 +1.1862873393e+01 1.1862873393e+01 0.0000000000e+00 0.0000e+00 1.0000e+00
        1 -1    0    0  501    0 +0.0000000000e+00 -0.0000000000e+00 -1.3026877136e+02 1.3026877136e+02 0.0000000000e+00 0.0000e+00 -1.0000e+00
      -24  2    1    2    0    0 +0.0000000000e+00 +0.0000000000e+00 -1.1840589796e+02 1.4213164475e+02 7.8622183680e+01 0.0000e+00 0.0000e+00
       13  1    3    3    0    0 +1.9987029073e+01 -1.4768519365e+01 -1.1426674921e+02 1.1693793427e+02 0.0000000000e+00 0.0000e+00 -1.0000e+00
      -14  1    3    3    0    0 -1.9987029073e+01 +1.4768519365e+01 -4.1391487497e+00 2.5193710480e+01 0.0000000000e+00 0.0000e+00 1.0000e+00
<mgrwt>
<rscale>  0 0.78622184E+02</rscale>
<asrwt>0</asrwt>
<pdfrwt beam="1">  1        1 0.20041348E-01 0.78622184E+02</pdfrwt>
<pdfrwt beam="2">  1       -2 0.18250576E-02 0.78622184E+02</pdfrwt>
<totfact> 0.16121840E+05</totfact>
</mgrwt>
</event>
<event>
 5      1 +7.5707000e+03 7.95835800e+01 7.54677100e-03 1.33023700e-01
       -4 -1    0    0    0  501 -0.0000000000e+00 +0.0000000000e+00 +1.6742828324e+01 1.6742828324e+01 0.0000000000e+00 0.0000e+00 1.0000e+00
        3 -1    0    0  501    0 +0.0000000000e+00 -0.0000000000e+00 -9.4571038684e+01 9.4571038684e+01 0.0000000000e+00 0.0000e+00 -1.0000e+00
      -24  2    1    2    0    0 +0.0000000000e+00 +0.0000000000e+00 -7.7828210360e+01 1.1131386701e+02 7.9583582857e+01 0.0000e+00 0.0000e+00
       13  1    3    3    0    0 +3.2226030359e+01 +4.3388301741e+00 -7.0994292474e+01 7.8086695691e+01 0.0000000000e+00 0.0000e+00 -1.0000e+00
      -14  1    3    3    0    0 -3.2226030359e+01 -4.3388301741e+00 -6.8339178855e+00 3.3227171316e+01 0.0000000000e+00 0.0000e+00 1.0000e+00
<mgrwt>
<rscale>  0 0.79583583E+02</rscale>
<asrwt>0</asrwt>
<pdfrwt beam="1">  1        3 0.14549391E-01 0.79583583E+02</pdfrwt>
<pdfrwt beam="2">  1       -4 0.25758197E-02 0.79583583E+02</pdfrwt>
<totfact> 0.43610561E+04</totfact>
</mgrwt>
</event>
<event>
 5      1 +7.5707000e+03 8.06289900e+01 7.54677100e-03 1.32727600e-01
        1 -1    0    0  501    0 +0.0000000000e+00 +0.0000000000e+00 +1.9342289853e+00 1.9342289853e+00 0.0000000000e+00 0.0000e+00 -1.0000e+00
       -2 -1    0    0    0  501 -0.0000000000e+00 -0.0000000000e+00 -8.4026167932e+02 8.4026167932e+02 0.0000000000e+00 0.0000e+00 1.0000e+00
      -24  2    1    2    0    0 +0.0000000000e+00 +0.0000000000e+00 -8.3832745034e+02 8.4219590831e+02 8.0628989709e+01 0.0000e+00 0.0000e+00
       13  1    3    3    0    0 -2.0747966423e+00 +2.0668078585e+01 -5.8265430448e+01 6.1857373358e+01 0.0000000000e+00 0.0000e+00 -1.0000e+00
      -14  1    3    3    0    0 +2.0747966423e+00 -2.0668078585e+01 -7.8006201989e+02 7.8033853495e+02 0.0000000000e+00 0.0000e+00 1.0000e+00
<mgrwt>
<rscale>  0 0.80628990E+02</rscale>
<asrwt>0</asrwt>
<pdfrwt beam="1">  1        1 0.29757395E-03 0.80628990E+02</pdfrwt>
<pdfrwt beam="2">  1       -2 0.12927092E+00 0.80628990E+02</pdfrwt>
<totfact> 0.30956159E+04</totfact>
</mgrwt>
</event>
<event>
 5      1 +7.5707000e+03 8.03976400e+01 7.54677100e-03 1.32792700e-01
        1 -1    0    0  501    0 +0.0000000000e+00 +0.0000000000e+00 +1.2664295136e+02 1.2664295136e+02 0.0000000000e+00 0.0000e+00 -1.0000e+00
       -2 -1    0    0    0  501 -0.0000000000e+00 -0.0000000000e+00 -1.2759851648e+01 1.2759851648e+01 0.0000000000e+00 0.0000e+00 1.0000e+00
      -24  2    1    2    0    0 +0.0000000000e+00 +0.0000000000e+00 +1.1388309972e+02 1.3940280301e+02 8.0397643538e+01 0.0000e+00 0.0000e+00
       11  1    3    3    0    0 +7.7991889178e+00 +3.9077301085e+01 +4.7753025096e+01 6.2194969360e+01 0.0000000000e+00 0.0000e+00 -1.0000e+00
      -12  1    3    3    0    0 -7.7991889178e+00 -3.9077301085e+01 +6.6130074619e+01 7.7207833651e+01 0.0000000000e+00 0.0000e+00 1.0000e+00
<mgrwt>
<rscale>  0 0.80397644E+02</rscale>
<asrwt>0</asrwt>
<pdfrwt beam="1">  1        1 0.19483530E-01 0.80397644E+02</pdfrwt>
<pdfrwt beam="2">  1       -2 0.19630542E-02 0.80397644E+02</pdfrwt>
<totfact> 0.15109004E+05</totfact>
</mgrwt>
</event>
<event>
 5      1 +7.5707000e+03 8.13079900e+01 7.54677100e-03 1.32538000e-01
        1 -1    0    0  501    0 +0.0000000000e+00 +0.0000000000e+00 +4.0711116622e+01 4.0711116622e+01 0.0000000000e+00 0.0000e+00 -1.0000e+00
       -2 -1    0    0    0  501 -0.0000000000e+00 -0.0000000000e+00 -4.0596951457e+01 4.0596951457e+01 0.0000000000e+00 0.0000e+00 1.0000e+00
      -24  2    1    2    0    0 +0.0000000000e+00 +0.0000000000e+00 +1.1416516501e-01 8.1308068080e+01 8.1307987930e+01 0.0000e+00 0.0000e+00
       13  1    3    3    0    0 -5.4646230519e+00 -1.3239803105e+01 +3.8104363535e+01 4.0707456464e+01 0.0000000000e+00 0.0000e+00 -1.0000e+00
      -14  1    3    3    0    0 +5.4646230519e+00 +1.3239803105e+01 -3.7990198370e+01 4.0600611616e+01 0.0000000000e+00 0.0000e+00 1.0000e+00
<mgrwt>
<rscale>  0 0.81307988E+02</rscale>
<asrwt>0</asrwt>
<pdfrwt beam="1">  1        1 0.62632487E-02 0.81307988E+02</pdfrwt>
<pdfrwt beam="2">  1       -2 0.62456848E-02 0.81307988E+02</pdfrwt>
<totfact> 0.12164867E+05</totfact>
</mgrwt>
</event>
<event>
 5      1 +7.5707000e+03 7.90767300e+01 7.54677100e-03 1.33169200e-01
        1 -1    0    0  501    0 +0.0000000000e+00 +0.0000000000e+00 +2.0462720086e+01 2.0462720086e+01 0.0000000000e+00 0.0000e+00 -1.0000e+00
       -2 -1    0    0    0  501 -0.0000000000e+00 -0.0000000000e+00 -7.6396604796e+01 7.6396604796e+01 0.0000000000e+00 0.0000e+00 1.0000e+00
      -24  2    1    2    0    0 +0.0000000000e+00 +0.0000000000e+00 -5.5933884710e+01 9.6859324881e+01 7.9076730823e+01 0.0000e+00 0.0000e+00
       11  1    3    3    0    0 +6.3646645145e+00 -1.2958108378e+01 +1.7118887932e+01 2.2393701149e+01 0.0000000000e+00 0.0000e+00 -1.0000e+00
      -12  1    3    3    0    0 -6.3646645145e+00 +1.2958108378e+01 -7.3052772642e+01 7.4465623732e+01 0.0000000000e+00 0.0000e+00 1.0000e+00
<mgrwt>
<rscale>  0 0.79076731E+02</rscale>
<asrwt>0</asrwt>
<pdfrwt beam="1">  1        1 0.31481107E-02 0.79076731E+02</pdfrwt>
<pdfrwt beam="2">  1       -2 0.11753324E-01 0.79076731E+02</pdfrwt>
<totfact> 0.11624820E+05</totfact>
</mgrwt>
</event>
<event>
 5      1 +7.5707000e+03 8.02954600e+01 7.54677100e-03 1.32821500e-01
       -4 -1    0    0    0  501 -0.0000000000e+00 +0.0000000000e+00 +3.4703391876e+02 3.4703391876e+02 0.0000000000e+00 0.0000e+00 1.0000e+00
        3 -1    0    0  501    0 +0.0000000000e+00 -0.0000000000e+00 -4.6446182725e+00 4.6446182725e+00 0.0000000000e+00 0.0000e+00 -1.0000e+00
      -24  2    1    2    0    0 +0.0000000000e+00 +0.0000000000e+00 +3.4238930049e+02 3.5167853703e+02 8.0295456416e+01 0.0000e+00 0.0000e+00
       13  1    3    3    0    0 +2.0001448718e+01 +3.4804999523e+01 +1.7394430922e+02 1.7851629801e+02 0.0000000000e+00 0.0000e+00 -1.0000e+00
      -14  1    3    3    0    0 -2.0001448718e+01 -3.4804999523e+01 +1.6844499127e+02 1.7316223903e+02 0.0000000000e+00 0.0000e+00 1.0000e+00
<mgrwt>
<rscale>  0 0.80295456E+02</rscale>
<asrwt>0</asrwt>
<pdfrwt beam="1">  1        3 0.71455693E-03 0.80295456E+02</pdfrwt>
<pdfrwt beam="2">  1       -4 0.53389813E-01 0.80295456E+02</pdfrwt>
<totfact> 0.25063040E+04</totfact>
</mgrwt>
</event>
<event>
 5      1 +7.5707000e+03 8.09872600e+01 7.54677100e-03 1.32627300e-01
        3 -1    0    0  501    0 +0.0000000000e+00 +0.0000000000e+00 +1.2622923443e+01 1.2622923443e+01 0.0000000000e+00 0.0000e+00 -1.0000e+00
       -4 -1    0    0    0  501 -0.0000000000e+00 -0.0000000000e+00 -1.2990127863e+02 1.2990127863e+02 0.0000000000e+00 0.0000e+00 1.0000e+00
      -24  2    1    2    0    0 +0.0000000000e+00 +0.0000000000e+00 -1.1727835519e+02 1.4252420207e+02 8.0987255670e+01 0.0000e+00 0.0000e+00
       13  1    3    3    0    0 -2.3704415409e+01 -3.0022314017e+01 -3.5259504088e+01 5.2023756856e+01 0.0000000000e+00 0.0000e+00 -1.0000e+00
      -14  1    3    3    0    0 +2.3704415409e+01 +3.0022314017e+01 -8.2018851099e+01 9.0500445216e+01 0.0000000000e+00 0.0000e+00 1.0000e+00
<mgrwt>
<rscale>  0 0.80987256E+02</rscale>
<asrwt>0</asrwt>
<pdfrwt beam="1">  1        3 0.19419883E-02 0.80987256E+02</pdfrwt>
<pdfrwt beam="2">  1       -4 0.19984811E-01 0.80987256E+02</pdfrwt>
<totfact> 0.36728843E+04</totfact>
</mgrwt>
</event>
<event>
 5      1 +7.5707000e+03 7.39363000e+01 7.54677100e-03 1.34719700e-01
       -4 -1    0    0    0  501 -0.0000000000e+00 +0.0000000000e+00 +9.2348677059e+01 9.2348677059e+01 0.0000000000e+00 0.0000e+00 1.0000e+00
        3 -1    0    0  501    0 +0.0000000000e+00 -0.0000000000e+00 -1.4798739965e+01 1.4798739965e+01 0.0000000000e+00 0.0000e+00 -1.0000e+00
      -24  2    1    2    0    0 +0.0000000000e+00 +0.0000000000e+00 +7.7549937094e+01 1.0714741702e+02 7.3936298471e+01 0.0000e+00 0.0000e+00
       13  1    3    3    0    0 -3.1083629691e+00 -3.2323659273e+01 +1.3170554242e+01 3.5042037158e+01 0.0000000000e+00 0.0000e+00 -1.0000e+00
      -14  1    3    3    0    0 +3.1083629691e+00 +3.2323659273e+01 +6.4379382852e+01 7.2105379865e+01 0.0000000000e+00 0.0000e+00 1.0000e+00
<mgrwt>
<rscale>  0 0.73936298E+02</rscale>
<asrwt>0</asrwt>
<pdfrwt beam="1">  1        3 0.22767293E-02 0.73936298E+02</pdfrwt>
<pdfrwt beam="2">  1       -4 0.14207488E-01 0.73936298E+02</pdfrwt>
<totfact> 0.50894787E+04</totfact>
</mgrwt>
</event>
<event>
 5      1 +7.5707000e+03 7.94030200e+01 7.54677100e-03 1.33075400e-01
        1 -1    0    0  501    0 +0.0000000000e+00 +0.0000000000e+00 +1.0590379955e+02 1.0590379955e+02 0.0000000000e+00 0.0000e+00 -1.0000e+00
       -2 -1    0    0    0  501 -0.0000000000e+00 -0.0000000000e+00 -1.4883410822e+01 1.4883410822e+01 0.0000000000e+00 0.0000e+00 1.0000e+00
      -24  2    1    2    0    0 +0.0000000000e+00 +0.0000000000e+00 +9.1020388732e+01 1.2078721038e+02 7.9403016475e+01 0.0000e+00 0.0000e+00
       11  1    3    3    0    0 -2.6070294990e+01 +4.7909376250e+00 +9.0471546742e+01 9.4274673874e+01 0.0000000000e+00 0.0000e+00 -1.0000e+00
      -12  1    3    3    0    0 +2.6070294990e+01 -4.7909376250e+00 +5.4884199001e-01 2.6512536501e+01 0.0000000000e+00 0.0000e+00 1.0000e+00
<mgrwt>
<rscale>  0 0.79403016E+02</rscale>
<asrwt>0</asrwt>
<pdfrwt beam="1">  1        1 0.16292892E-01 0.79403016E+02</pdfrwt>
<pdfrwt beam="2">  1       -2 0.22897556E-02 0.79403016E+02</pdfrwt>
<totfact> 0.15145345E+05</totfact>
</mgrwt>
</event>
<event>
 5      1 +7.5707000e+03 8.05563500e+01 7.54677100e-03 1.32748000e-01
        1 -1    0    0  501    0 +0.0000000000e+00 +0.0000000000e+00 +6.4595129863e+01 6.4595129863e+01 0.0000000000e+00 0.0000e+00 -1.0000e+00
       -2 -1    0    0    0  501 -0.0000000000e+00 -0.0000000000e+00 -2.5115384301e+01 2.5115384301e+01 0.0000000000e+00 0.0000e+00 1.0000e+00
      -24  2    1    2    0    0 +0.0000000000e+00 +0.0000000000e+00 +3.9479745562e+01 8.9710514164e+01 8.0556353206e+01 0.0000e+00 0.0000e+00
       11  1    3    3    0    0 -2.3657727679e+01 +1.1430827415e+01 +5.3737354993e+01 5.9816847259e+01 0.0000000000e+00 0.0000e+00 -1.0000e+00
      -12  1    3    3    0    0 +2.3657727679e+01 -1.1430827415e+01 -1.4257609431e+01 2.9893666905e+01 0.0000000000e+00 0.0000e+00 1.0000e+00
<mgrwt>
<rscale>  0 0.80556353E+02</rscale>
<asrwt>0</asrwt>
<pdfrwt beam="1">  1        1 0.99377122E-02 0.80556353E+02</pdfrwt>
<pdfrwt beam="2">  1       -2 0.38639053E-02 0.80556353E+02</pdfrwt>
<totfact> 0.13437578E+05</totfact>
</mgrwt>
</event>
<event>
 5      1 +7.5707000e+03 8.24178800e+01 7.54677100e-03 1.32232700e-01
        1 -1    0    0  501    0 +0.0000000000e+00 +0.0000000000e+00 +1.0084505148e+02 1.0084505148e+02 0.0000000000e+00 0.0000e+00 -1.0000e+00
       -2 -1    0    0    0  501 -0.0000000000e+00 -0.0000000000e+00 -1.6839463561e+01 1.6839463561e+01 0.0000000000e+00 0.0000e+00 1.0000e+00
      -24  2    1    2    0    0 +0.0000000000e+00 +0.0000000000e+00 +8.4005587919e+01 1.1768451504e+02 8.2417875966e+01 0.0000e+00 0.0000e+00
       11  1    3    3    0    0 -3.1157136686e+00 -4.0082870773e+01 +5.4919758434e+01 6.8062648108e+01 0.0000000000e+00 0.0000e+00 -1.0000e+00
      -12  1    3    3    0    0 +3.1157136686e+00 +4.0082870773e+01 +2.9085829485e+01 4.9621866933e+01 0.0000000000e+00 0.0000e+00 1.0000e+00
<mgrwt>
<rscale>  0 0.82417876E+02</rscale>
<asrwt>0</asrwt>
<pdfrwt beam="1">  1        1 0.15514623E-01 0.82417876E+02</pdfrwt>
<pdfrwt beam="2">  1       -2 0.25906868E-02 0.82417876E+02</pdfrwt>
<totfact> 0.13579952E+05</totfact>
</mgrwt>
</event>
<event>
 5      1 +7.5707000e+03 9.21318600e+01 7.54677100e-03 1.29777000e-01
       -2 -1    0    0    0  501 -0.0000000000e+00 +0.0000000000e+00 +6.6314097998e+01 6.6314097998e+01 0.0000000000e+00 0.0000e+00 1.0000e+00
        1 -1    0    0  501    0 +0.0000000000e+00 -0.0000000000e+00 -3.2000283288e+01 3.2000283288e+01 0.0000000000e+00 0.0000e+00 -1.0000e+00
      -24  2    1    2    0    0 +0.0000000000e+00 +0.0000000000e+00 +3.4313814710e+01 9.8314381285e+01 9.2131860328e+01 0.0000e+00 0.0000e+00
       11  1    3    3    0    0 -6.4826071002e+00 -2.7611479532e+01 -2.1578449414e+01 3.5637725459e+01 0.0000000000e+00 0.0000e+00 -1.0000e+00
      -12  1    3    3    0    0 +6.4826071002e+00 +2.7611479532e+01 +5.5892264124e+01 6.2676655827e+01 0.0000000000e+00 0.0000e+00 1.0000e+00
<mgrwt>
<rscale>  0 0.92131860E+02</rscale>
<asrwt>0</asrwt>
<pdfrwt beam="1">  1        1 0.49231205E-02 0.92131860E+02</pdfrwt>
<pdfrwt beam="2">  1       -2 0.10202169E-01 0.92131860E+02</pdfrwt>
<totfact> 0.81151590E+04</totfact>
</mgrwt>
</event>
<event>
 5      1 +7.5707000e+03 9.01909700e+01 7.54677100e-03 1.30239000e-01
        3 -1    0    0  501    0 +0.0000000000e+00 +0.0000000000e+00 +5.1471979982e+00 5.1471979982e+00 0.0000000000e+00 0.0000e+00 -1.0000e+00
       -4 -1    0    0    0  501 -0.0000000000e+00 -0.0000000000e+00 -3.9508925216e+02 3.9508925216e+02 0.0000000000e+00 0.0000e+00 1.0000e+00
      -24  2    1    2    0    0 +0.0000000000e+00 +0.0000000000e+00 -3.8994205416e+02 4.0023645016e+02 9.0190966462e+01 0.0000e+00 0.0000e+00
       11  1    3    3    0    0 -1.9558110670e+01 -4.0153930785e+01 -1.6734871230e+02 1.7320637794e+02 0.0000000000e+00 0.0000e+00 -1.0000e+00
      -12  1    3    3    0    0 +1.9558110670e+01 +4.0153930785e+01 -2.2259334186e+02 2.2703007222e+02 0.0000000000e+00 0.0000e+00 1.0000e+00
<mgrwt>
<rscale>  0 0.90190966E+02</rscale>
<asrwt>0</asrwt>
<pdfrwt beam="1">  1        3 0.79187679E-03 0.90190966E+02</pdfrwt>
<pdfrwt beam="2">  1       -4 0.60782948E-01 0.90190966E+02</pdfrwt>
<totfact> 0.17081146E+04</totfact>
</mgrwt>
</event>
<event>
 5      1 +7.5707000e+03 8.25421900e+01 7.54677100e-03 1.32198800e-01
       -2 -1    0    0    0  501 -0.0000000000e+00 +0.0000000000e+00 +1.2444452551e+01 1.2444452551e+01 0.0000000000e+00 0.0000e+00 1.0000e+00
        1 -1    0    0  501    0 +0.0000000000e+00 -0.0000000000e+00 -1.3687248230e+02 1.3687248230e+02 0.0000000000e+00 0.0000e+00 -1.0000e+00
      -24  2    1    2    0    0 +0.0000000000e+00 +0.0000000000e+00 -1.2442802975e+02 1.4931693485e+02 8.2542185858e+01 0.0000e+00 0.0000e+00
       13  1    3    3    0    0 +3.0076465562e+01 -3.9730697428e-01 -1.1094754729e+01 3.2060025203e+01 0.0000000000e+00 0.0000e+00 -1.0000e+00
      -14  1    3    3    0    0 -3.0076465562e+01 +3.9730697428e-01 -1.1333327502e+02 1.1725690965e+02 0.0000000000e+00 0.0000e+00 1.0000e+00
<mgrwt>
<rscale>  0 0.82542186E+02</rscale>
<asrwt>0</asrwt>
<pdfrwt beam="1">  1        1 0.21057305E-01 0.82542186E+02</pdfrwt>
<pdfrwt beam="2">  1       -2 0.19145312E-02 0.82542186E+02</pdfrwt>
<totfact> 0.14276288E+05</totfact>
</mgrwt>
</event>
<event>
 5      1 +7.5707000e+03 7.81360300e+01 7.54677100e-03 1.33442600e-01
        3 -1    0    0  501    0 +0.0000000000e+00 +0.0000000000e+00 +7.1106351652e+01 7.1106351652e+01 0.0000000000e+00 0.0000e+00 -1.0000e+00
       -4 -1    0    0    0  501 -0.0000000000e+00 -0.0000000000e+00 -2.1465166473e+01 2.1465166473e+01 0.0000000000e+00 0.0000e+00 1.0000e+00
      -24  2    1    2    0    0 +0.0000000000e+00 +0.0000000000e+00 +4.9641185179e+01 9.2571518125e+01 7.8136026914e+01 0.0000e+00 0.0000e+00
       11  1    3    3    0    0 +3.7222422649e+01 -6.1424938527e+00 +3.6848599470e+01 5.2735739888e+01 0.0000000000e+00 0.0000e+00 -1.0000e+00
      -12  1    3    3    0    0 -3.7222422649e+01 +6.1424938527e+00 +1.2792585709e+01 3.9835778237e+01 0.0000000000e+00 0.0000e+00 1.0000e+00
<mgrwt>
<rscale>  0 0.78136027E+02</rscale>
<asrwt>0</asrwt>
<pdfrwt beam="1">  1        3 0.10939439E-01 0.78136027E+02</pdfrwt>
<pdfrwt beam="2">  1       -4 0.33023333E-02 0.78136027E+02</pdfrwt>
<totfact> 0.47437409E+04</totfact>
</mgrwt>
</event>
<event>
 5      1 +7.5707000e+03 7.57465700e+01 7.54677100e-03 1.34157500e-01
       -2 -1    0    0    0  501 -0.0000000000e+00 +0.0000000000e+00 +7.8584485877e+00 7.8584485877e+00 0.0000000000e+00 0.0000e+00 1.0000e+00
        1 -1    0    0  501    0 +0.0000000000e+00 -0.0000000000e+00 -1.8252783166e+02 1.8252783166e+02 0.0000000000e+00 0.0000e+00 -1.0000e+00
      -24  2    1    2    0    0 +0.0000000000e+00 +0.0000000000e+00 -1.7466938307e+02 1.9038628025e+02 7.5746566415e+01 0.0000e+00 0.0000e+00
       13  1    3    3    0    0 -3.2291582945e+01 +1.9787388532e+01 -8.8123562504e+01 9.5916887681e+01 0.0000000000e+00 0.0000e+00 -1.0000e+00
      -14  1    3    3    0    0 +3.2291582945e+01 -1.9787388532e+01 -8.6545820566e+01 9.4469392565e+01 0.0000000000e+00 0.0000e+00 1.0000e+00
<mgrwt>
<rscale>  0 0.75746566E+02</rscale>
<asrwt>0</asrwt>
<pdfrwt beam="1">  1        1 0.28081203E-01 0.75746566E+02</pdfrwt>
<pdfrwt beam="2">  1       -2 0.12089922E-02 0.75746566E+02</pdfrwt>
<totfact> 0.18936082E+05</totfact>
</mgrwt>
</event>
<event>
 5      1 +7.5707000e+03 8.07977800e+01 7.54677100e-03 1.32680300e-01
       -2 -1    0    0    0  501 -0.0000000000e+00 +0.0000000000e+00 +9.2411495885e+01 9.2411495885e+01 0.0000000000e+00 0.0000e+00 1.0000e+00
        1 -1    0    0  501    0 +0.0000000000e+00 -0.0000000000e+00 -1.7660902471e+01 1.7660902471e+01 0.0000000000e+00 0.0000e+00 -1.0000e+00
      -24  2    1    2    0    0 +0.0000000000e+00 +0.0000000000e+00 +7.4750593415e+01 1.1007239836e+02 8.0797782544e+01 0.0000e+00 0.0000e+00
       13  1    3    3    0    0 -3.7695499008e+01 +3.5358163152e+00 +1.8175879676e+01 4.1997800472e+01 0.0000000000e+00 0.0000e+00 -1.0000e+00
      -14  1    3    3    0    0 +3.7695499008e+01 -3.5358163152e+00 +5.6574713739e+01 6.8074597884e+01 0.0000000000e+00 0.0000e+00 1.0000e+00
<mgrwt>
<rscale>  0 0.80797783E+02</rscale>
<asrwt>0</asrwt>
<pdfrwt beam="1">  1        1 0.27170620E-02 0.80797783E+02</pdfrwt>
<pdfrwt beam="2">  1       -2 0.14217153E-01 0.80797783E+02</pdfrwt>
<totfact> 0.10546664E+05</totfact>
</mgrwt>
</event>
<event>
 5      1 +7.5707000e+03 8.23372700e+01 7.54677100e-03 1.32254600e-01
       -2 -1    0    0    0  501 -0.0000000000e+00 +0.0000000000e+00 +2.9556530622e+00 2.9556530622e+00 0.0000000000e+00 0.0000e+00 1.0000e+00
        1 -1    0    0  501    0 +0.0000000000e+00 -0.0000000000e+00 -5.7342873354e+02 5.7342873354e+02 0.0000000000e+00 0.0000e+00 -1.0000e+00
      -24  2    1    2    0    0 +0.0000000000e+00 +0.0000000000e+00 -5.7047308048e+02 5.7638438661e+02 8.2337267194e+01 0.0000e+00 0.0000e+00
       11  1    3    3    0    0 +3.6487539519e+01 -9.2043704967e+00 -1.6835159609e+02 1.7250600245e+02 0.0000000000e+00 0.0000e+00 -1.0000e+00
      -12  1    3    3    0    0 -3.6487539519e+01 +9.2043704967e+00 -4.0212148439e+02 4.0387838415e+02 0.0000000000e+00 0.0000e+00 1.0000e+00
<mgrwt>
<rscale>  0 0.82337267E+02</rscale>
<asrwt>0</asrwt>
<pdfrwt beam="1">  1        1 0.88219777E-01 0.82337267E+02</pdfrwt>
<pdfrwt beam="2">  1       -2 0.45471600E-03 0.82337267E+02</pdfrwt>
<totfact> 0.18429241E+05</totfact>
</mgrwt>
</event>
<event>
 5      1 +7.5707000e+03 7.73082700e+01 7.54677100e-03 1.33686800e-01
       -2 -1    0    0    0  501 -0.0000000000e+00 +0.0000000000e+00 +3.7300888286e+01 3.7300888286e+01 0.0000000000e+00 0.0000e+00 1.0000e+00
        1 -1    0    0  501    0 +0.0000000000e+00 -0.0000000000e+00 -4.0056474287e+01 4.0056474287e+01 0.0000000000e+00 0.0000e+00 -1.0000e+00
      -24  2    1    2    0    0 +0.0000000000e+00 +0.0000000000e+00 -2.7555860010e+00 7.7357362572e+01 7.7308267927e+01 0.0000e+00 0.0000e+00
       11  1    3    3    0    0 -1.2965429810e+01 -2.3651704558e+01 -2.9083579196e+01 3.9665603203e+01 0.0000000000e+00 0.0000e+00 -1.0000e+00
      -12  1    3    3    0    0 +1.2965429810e+01 +2.3651704558e+01 +2.6327993195e+01 3.7691759369e+01 0.0000000000e+00 0.0000e+00 1.0000e+00
<mgrwt>
<rscale>  0 0.77308268E+02</rscale>
<asrwt>0</asrwt>
<pdfrwt beam="1">  1        1 0.61625345E-02 0.77308268E+02</pdfrwt>
<pdfrwt beam="2">  1       -2 0.57385982E-02 0.77308268E+02</pdfrwt>
<totfact> 0.13981594E+05</totfact>
</mgrwt>
</event>
<event>
 5      1 +7.5707000e+03 8.17571200e+01 7.54677100e-03 1.32413800e-01
        1 -1    0    0  501    0 +0.0000000000e+00 +0.0000000000e+00 +1.3496802412e+01 1.3496802412e+01 0.0000000000e+00 0.0000e+00 -1.0000e+00
       -2 -1    0    0    0  501 -0.0000000000e+00 -0.0000000000e+00 -1.2381130235e+02 1.2381130235e+02 0.0000000000e+00 0.0000e+00 1.0000e+00
      -24  2    1    2    0    0 +0.0000000000e+00 +0.0000000000e+00 -1.1031449994e+02 1.3730810476e+02 8.1757120403e+01 0.0000e+00 0.0000e+00
       13  1    3    3    0    0 +8.1987475862e+00 +3.1021930961e+01 -1.2620810123e+01 3.4479914598e+01 0.0000000000e+00 0.0000e+00 -1.0000e+00
      -14  1    3    3    0    0 -8.1987475862e+00 -3.1021930961e+01 -9.7693689814e+01 1.0282819016e+02 0.0000000000e+00 0.0000e+00 1.0000e+00
<mgrwt>
<rscale>  0 0.81757120E+02</rscale>
<asrwt>0</asrwt>
<pdfrwt beam="1">  1        1 0.20764311E-02 0.81757120E+02</pdfrwt>
<pdfrwt beam="2">  1       -2 0.19047893E-01 0.81757120E+02</pdfrwt>
<totfact> 0.94809407E+04</totfact>
</mgrwt>
</event>
<event>
 5      1 +7.5707000e+03 9.92404300e+01 7.54677100e-03 1.28190100e-01
       -2 -1    0    0    0  501 -0.0000000000e+00 +0.0000000000e+00 +1.7496434700e+02 1.7496434700e+02 0.0000000000e+00 0.0000e+00 1.0000e+00
        1 -1    0    0  501    0 +0.0000000000e+00 -0.0000000000e+00 -1.4072385660e+01 1.4072385660e+01 0.0000000000e+00 0.0000e+00 -1.0000e+00
      -24  2    1    2    0    0 +0.0000000000e+00 +0.0000000000e+00 +1.6089196134e+02 1.8903673265e+02 9.9240430624e+01 0.0000e+00 0.0000e+00
       11  1    3    3    0    0 -4.8080900959e+01 +7.1788322789e+00 +6.1506786779e+01 7.8398938066e+01 0.0000000000e+00 0.0000e+00 -1.0000e+00
      -12  1    3    3    0    0 +4.8080900959e+01 -7.1788322789e+00 +9.9385174556e+01 1.1063779459e+02 0.0000000000e+00 0.0000e+00 1.0000e+00
<mgrwt>
<rscale>  0 0.99240431E+02</rscale>
<asrwt>0</asrwt>
<pdfrwt beam="1">  1        1 0.21649825E-02 0.99240431E+02</pdfrwt>
<pdfrwt beam="2">  1       -2 0.26917590E-01 0.99240431E+02</pdfrwt>
<totfact> 0.51223240E+04</totfact>
</mgrwt>
</event>
<event>
 5      1 +7.5707000e+03 8.13402100e+01 7.54677100e-03 1.32529100e-01
       -2 -1    0    0    0  501 -0.0000000000e+00 +0.0000000000e+00 +6.4419233562e+01 6.4419233562e+01 0.0000000000e+00 0.0000e+00 1.0000e+00
        1 -1    0    0  501    0 +0.0000000000e+00 -0.0000000000e+00 -2.5676451425e+01 2.5676451425e+01 0.0000000000e+00 0.0000e+00 -1.0000e+00
      -24  2    1    2    0    0 +0.0000000000e+00 +0.0000000000e+00 +3.8742782136e+01 9.0095684987e+01 8.1340207066e+01 0.0000e+00 0.0000e+00
       13  1    3    3    0    0 +1.8207205525e+01 +2.6472657110e+01 -8.2475998454e+00 3.3171174394e+01 0.0000000000e+00 0.0000e+00 -1.0000e+00
      -14  1    3    3    0    0 -1.8207205525e+01 -2.6472657110e+01 +4.6990381982e+01 5.6924510593e+01 0.0000000000e+00 0.0000e+00 1.0000e+00
<mgrwt>
<rscale>  0 0.81340207E+02</rscale>
<asrwt>0</asrwt>
<pdfrwt beam="1">  1        1 0.39502233E-02 0.81340207E+02</pdfrwt>
<pdfrwt beam="2">  1       -2 0.99106513E-02 0.81340207E+02</pdfrwt>
<totfact> 0.11198824E+05</totfact>
</mgrwt>
</event>
<event>
 5      1 +7.5707000e+03 8.69543000e+01 7.54677100e-03 1.31040000e-01
       -2 -1    0    0    0  501 -0.0000000000e+00 +0.0000000000e+00 +1.4589211226e+02 1.4589211226e+02 0.0000000000e+00 0.0000e+00 1.0000e+00
        1 -1    0    0  501    0 +0.0000000000e+00 -0.0000000000e+00 -1.2956578622e+01 1.2956578622e+01 0.0000000000e+00 0.0000e+00 -1.0000e+00
      -24  2    1    2    0    0 +0.0000000000e+00 +0.0000000000e+00 +1.3293553364e+02 1.5884869089e+02 8.6954301167e+01 0.0000e+00 0.0000e+00
       11  1    3    3    0    0 -3.5358382871e+01 +2.0842240877e+01 +4.0270546291e+01 5.7500705584e+01 0.0000000000e+00 0.0000e+00 -1.0000e+00
      -12  1    3    3    0    0 +3.5358382871e+01 -2.0842240877e+01 +9.2664987351e+01 1.0134798530e+02 0.0000000000e+00 0.0000e+00 1.0000e+00
<mgrwt>
<rscale>  0 0.86954301E+02</rscale>
<asrwt>0</asrwt>
<pdfrwt beam="1">  1        1 0.19933199E-02 0.86954301E+02</pdfrwt>
<pdfrwt beam="2">  1       -2 0.22444939E-01 0.86954301E+02</pdfrwt>
<totfact> 0.76925141E+04</totfact>
</mgrwt>
</event>
<event>
 5      1 +7.5707000e+03 7.97298900e+01 7.54677100e-03 1.32982000e-01
        3 -1    0    0  501    0 +0.0000000000e+00 +0.0000000000e+00 +7.4498622396e+00 7.4498622396e+00 0.0000000000e+00 0.0000e+00 -1.0000e+00
       -4 -1    0    0    0  501 -0.0000000000e+00 -0.0000000000e+00 -2.1332125209e+02 2.1332125209e+02 0.0000000000e+00 0.0000e+00 1.0000e+00
      -24  2    1    2    0    0 +0.0000000000e+00 +0.0000000000e+00 -2.0587138985e+02 2.2077111433e+02 7.9729892534e+01 0.0000e+00 0.0000e+00
       11  1    3    3    0    0 -3.7505336988e+01 -8.2696318154e+00 -7.3348073204e+01 8.2794788215e+01 0.0000000000e+00 0.0000e+00 -1.0000e+00
      -12  1    3    3    0    0 +3.7505336988e+01 +8.2696318154e+00 -1.3252331665e+02 1.3797632612e+02 0.0000000000e+00 0.0000e+00 1.0000e+00
<mgrwt>
<rscale>  0 0.79729893E+02</rscale>
<asrwt>0</asrwt>
<pdfrwt beam="1">  1        3 0.11461328E-02 0.79729893E+02</pdfrwt>
<pdfrwt beam="2">  1       -4 0.32818651E-01 0.79729893E+02</pdfrwt>
<totfact> 0.32359023E+04</totfact>
</mgrwt>
</event>
<event>
 5      1 +7.5707000e+03 8.09469000e+01 7.54677100e-03 1.32638600e-01
       -2 -1    0    0    0  501 -0.0000000000e+00 +0.0000000000e+00 +1.1939112691e+02 1.1939112691e+02 0.0000000000e+00 0.0000e+00 1.0000e+00
        1 -1    0    0  501    0 +0.0000000000e+00 -0.0000000000e+00 -1.3720452826e+01 1.3720452826e+01 0.0000000000e+00 0.0000e+00 -1.0000e+00
      -24  2    1    2    0    0 +0.0000000000e+00 +0.0000000000e+00 +1.0567067408e+02 1.3311157973e+02 8.0946904192e+01 0.0000e+00 0.0000e+00
       13  1    3    3    0    0 -1.0093459485e+01 +3.1996122228e+01 +1.5609021390e+01 3.7003666180e+01 0.0000000000e+00 0.0000e+00 -1.0000e+00
      -14  1    3    3    0    0 +1.0093459485e+01 -3.1996122228e+01 +9.0061652691e+01 9.6107913553e+01 0.0000000000e+00 0.0000e+00 1.0000e+00
<mgrwt>
<rscale>  0 0.80946904E+02</rscale>
<asrwt>0</asrwt>
<pdfrwt beam="1">  1        1 0.21108390E-02 0.80946904E+02</pdfrwt>
<pdfrwt beam="2">  1       -2 0.18367865E-01 0.80946904E+02</pdfrwt>
<totfact> 0.98275165E+04</totfact>
</mgrwt>
</event>
<event>
 5      1 +7.5707000e+03 7.95986900e+01 7.54677100e-03 1.33019400e-01
        1 -1    0    0  501    0 +0.0000000000e+00 +0.0000000000e+00 +2.8092711371e+01 2.8092711371e+01 0.0000000000e+00 0.0000e+00 -1.0000e+00
       -2 -1    0    0    0  501 -0.0000000000e+00 -0.0000000000e+00 -5.6384305455e+01 5.6384305455e+01 0.0000000000e+00 0.0000e+00 1.0000e+00
      -24  2    1    2    0    0 +0.0000000000e+00 +0.0000000000e+00 -2.8291594084e+01 8.4477016826e+01 7.9598693934e+01 0.0000e+00 0.0000e+00
       11  1    3    3    0    0 +5.8227283070e+00 +2.7066303367e+01 +1.6198442805e+01 3.2076135867e+01 0.0000000000e+00 0.0000e+00 -1.0000e+00
      -12  1    3    3    0    0 -5.8227283070e+00 -2.7066303367e+01 -4.4490036889e+01 5.2400880959e+01 0.0000000000e+00 0.0000e+00 1.0000e+00
<mgrwt>
<rscale>  0 0.79598694E+02</rscale>
<asrwt>0</asrwt>
<pdfrwt beam="1">  1        1 0.43219556E-02 0.79598694E+02</pdfrwt>
<pdfrwt beam="2">  1       -2 0.86745085E-02 0.79598694E+02</pdfrwt>
<totfact> 0.12127943E+05</totfact>
</mgrwt>
</event>
<event>
 5      1 +7.5707000e+03 8.11783000e+01 7.54677100e-03 1.32574000e-01
       -2 -1    0    0    0  501 -0.0000000000e+00 +0.0000000000e+00 +7.2897978538e+01 7.2897978538e+01 0.0000000000e+00 0.0000e+00 1.0000e+00
        1 -1    0    0  501    0 +0.0000000000e+00 -0.0000000000e+00 -2.2599791127e+01 2.2599791127e+01 0.0000000000e+00 0.0000e+00 -1.0000e+00
      -24  2    1    2    0    0 +0.0000000000e+00 +0.0000000000e+00 +5.0298187411e+01 9.5497769665e+01 8.1178299773e+01 0.0000e+00 0.0000e+00
       11  1    3    3    0    0 -2.6884162001e+01 +2.5729518147e+01 +6.0815869383e+00 3.7706126429e+01 0.0000000000e+00 0.0000e+00 -1.0000e+00
      -12  1    3    3    0    0 +2.6884162001e+01 -2.5729518147e+01 +4.4216600473e+01 5.7791643236e+01 0.0000000000e+00 0.0000e+00 1.0000e+00
<mgrwt>
<rscale>  0 0.81178300E+02</rscale>
<asrwt>0</asrwt>
<pdfrwt beam="1">  1        1 0.34768910E-02 0.81178300E+02</pdfrwt>
<pdfrwt beam="2">  1       -2 0.11215074E-01 0.81178300E+02</pdfrwt>
<totfact> 0.10980868E+05</totfact>
</mgrwt>
</event>
<event>
 5      1 +7.5707000e+03 8.10071200e+01 7.54677100e-03 1.32621700e-01
        1 -1    0    0  501    0 +0.0000000000e+00 +0.0000000000e+00 +1.2660510908e+01 1.2660510908e+01 0.0000000000e+00 0.0000e+00 -1.0000e+00
       -2 -1    0    0    0  501 -0.0000000000e+00 -0.0000000000e+00 -1.2957917281e+02 1.2957917281e+02 0.0000000000e+00 0.0000e+00 1.0000e+00
      -24  2    1    2    0    0 +0.0000000000e+00 +0.0000000000e+00 -1.1691866190e+02 1.4223968372e+02 8.1007123904e+01 0.0000e+00 0.0000e+00
       13  1    3    3    0    0 +3.8874954961e+01 +1.1368626172e+01 -5.8151440737e+01 7.0866761207e+01 0.0000000000e+00 0.0000e+00 -1.0000e+00
      -14  1    3    3    0    0 -3.8874954961e+01 -1.1368626172e+01 -5.8767221162e+01 7.1372922508e+01 0.0000000000e+00 0.0000e+00 1.0000e+00
<mgrwt>
<rscale>  0 0.81007124E+02</rscale>
<asrwt>0</asrwt>
<pdfrwt beam="1">  1        1 0.19477710E-02 0.81007124E+02</pdfrwt>
<pdfrwt beam="2">  1       -2 0.19935256E-01 0.81007124E+02</pdfrwt>
<totfact> 0.95798513E+04</totfact>
</mgrwt>
</event>
<event>
 5      1 +7.5707000e+03 8.23116600e+01 7.54677100e-03 1.32261600e-01
       -2 -1    0    0    0  501 -0.0000000000e+00 +0.0000000000e+00 +2.8816651305e+01 2.8816651305e+01 0.0000000000e+00 0.0000e+00 1.0000e+00
        1 -1    0    0  501    0 +0.0000000000e+00 -0.0000000000e+00 -5.8778601736e+01 5.8778601736e+01 0.0000000000e+00 0.0000e+00 -1.0000e+00
      -24  2    1    2    0    0 +0.0000000000e+00 +0.0000000000e+00 -2.9961950431e+01 8.7595253040e+01 8.2311663096e+01 0.0000e+00 0.0000e+00
       13  1    3    3    0    0 -1.3110657233e-01 -3.8173809860e+01 -3.1348257042e+01 4.9396054172e+01 0.0000000000e+00 0.0000e+00 -1.0000e+00
      -14  1    3    3    0    0 +1.3110657233e-01 +3.8173809860e+01 +1.3863066107e+00 3.8199198869e+01 0.0000000000e+00 0.0000e+00 1.0000e+00
<mgrwt>
<rscale>  0 0.82311663E+02</rscale>
<asrwt>0</asrwt>
<pdfrwt beam="1">  1        1 0.90428618E-02 0.82311663E+02</pdfrwt>
<pdfrwt beam="2">  1       -2 0.44333310E-02 0.82311663E+02</pdfrwt>
<totfact> 0.12472556E+05</totfact>
</mgrwt>
</event>
<event>
 5      1 +7.5707000e+03 7.83025300e+01 7.54677100e-03 1.33393900e-01
        1 -1    0    0  501    0 +0.0000000000e+00 +0.0000000000e+00 +3.5408109431e+02 3.5408109431e+02 0.0000000000e+00 0.0000e+00 -1.0000e+00
       -2 -1    0    0    0  501 -0.0000000000e+00 -0.0000000000e+00 -4.3290128689e+00 4.3290128689e+00 0.0000000000e+00 0.0000e+00 1.0000e+00
      -24  2    1    2    0    0 +0.0000000000e+00 +0.0000000000e+00 +3.4975208144e+02 3.5841010718e+02 7.8302531604e+01 0.0000e+00 0.0000e+00
       11  1    3    3    0    0 -3.3750093776e+01 -1.8033374324e+01 +2.1277338616e+02 2.1618692208e+02 0.0000000000e+00 0.0000e+00 -1.0000e+00
      -12  1    3    3    0    0 +3.3750093776e+01 +1.8033374324e+01 +1.3697869528e+02 1.4222318510e+02 0.0000000000e+00 0.0000e+00 1.0000e+00
<mgrwt>
<rscale>  0 0.78302532E+02</rscale>
<asrwt>0</asrwt>
<pdfrwt beam="1">  1        1 0.54473992E-01 0.78302532E+02</pdfrwt>
<pdfrwt beam="2">  1       -2 0.66600226E-03 0.78302532E+02</pdfrwt>
<totfact> 0.19679918E+05</totfact>
</mgrwt>
</event>
<event>
 5      1 +7.5707000e+03 8.00074200e+01 7.54677100e-03 1.32903000e-01
        1 -1    0    0  501    0 +0.0000000000e+00 +0.0000000000e+00 +6.9594668054e+01 6.9594668054e+01 0.0000000000e+00 0.0000e+00 -1.0000e+00
       -2 -1    0    0    0  501 -0.0000000000e+00 -0.0000000000e+00 -2.2994533606e+01 2.2994533606e+01 0.0000000000e+00 0.0000e+00 1.0000e+00
      -24  2    1    2    0    0 +0.0000000000e+00 +0.0000000000e+00 +4.6600134448e+01 9.2589201659e+01 8.0007422989e+01 0.0000e+00 0.0000e+00
       11  1    3    3    0    0 -2.2378780926e+01 -3.0131715849e+01 +7.2827352464e+00 3.8233079504e+01 0.0000000000e+00 0.0000e+00 -1.0000e+00
      -12  1    3    3    0    0 +2.2378780926e+01 +3.0131715849e+01 +3.9317399202e+01 5.4356122155e+01 0.0000000000e+00 0.0000e+00 1.0000e+00
<mgrwt>
<rscale>  0 0.80007423E+02</rscale>
<asrwt>0</asrwt>
<pdfrwt beam="1">  1        1 0.10706872E-01 0.80007423E+02</pdfrwt>
<pdfrwt beam="2">  1       -2 0.35376206E-02 0.80007423E+02</pdfrwt>
<totfact> 0.13854373E+05</totfact>
</mgrwt>
</event>
<event>
 5      1 +7.5707000e+03 8.07221900e+01 7.54677100e-03 1.32701400e-01
       -2 -1    0    0    0  501 -0.0000000000e+00 +0.0000000000e+00 +2.7404978404e+01 2.7404978404e+01 0.0000000000e+00 0.0000e+00 1.0000e+00
        1 -1    0    0  501    0 +0.0000000000e+00 -0.0000000000e+00 -5.9442412880e+01 5.9442412880e+01 0.0000000000e+00 0.0000e+00 -1.0000e+00
      -24  2    1    2    0    0 +0.0000000000e+00 +0.0000000000e+00 -3.2037434476e+01 8.6847391284e+01 8.0722191280e+01 0.0000e+00 0.0000e+00
       11  1    3    3    0    0 +3.0290170440e+01 +2.3868418481e+01 -2.8831278863e+01 4.8150165804e+01 0.0000000000e+00 0.0000e+00 -1.0000e+00
      -12  1    3    3    0    0 -3.0290170440e+01 -2.3868418481e+01 -3.2061556137e+00 3.8697225480e+01 0.0000000000e+00 0.0000e+00 1.0000e+00
<mgrwt>
<rscale>  0 0.80722191E+02</rscale>
<asrwt>0</asrwt>
<pdfrwt beam="1">  1        1 0.91449866E-02 0.80722191E+02</pdfrwt>
<pdfrwt beam="2">  1       -2 0.42161505E-02 0.80722191E+02</pdfrwt>
<totfact> 0.13187556E+05</totfact>
</mgrwt>
</event>
<event>
 5      1 +7.5707000e+03 7.89528400e+01 7.54677100e-03 1.33205000e-01
       -4 -1    0    0    0  501 -0.0000000000e+00 +0.0000000000e+00 +1.2906540128e+01 1.2906540128e+01 0.0000000000e+00 0.0000e+00 1.0000e+00
        3 -1    0    0  501    0 +0.0000000000e+00 -0.0000000000e+00 -1.2074402893e+02 1.2074402893e+02 0.0000000000e+00 0.0000e+00 -1.0000e+00
      -24  2    1    2    0    0 +0.0000000000e+00 +0.0000000000e+00 -1.0783748880e+02 1.3365056906e+02 7.8952837939e+01 0.0000e+00 0.0000e+00
       13  1    3    3    0    0 +3.4548647803e+01 +1.8617567307e+01 -6.1133441538e+01 7.2646545353e+01 0.0000000000e+00 0.0000e+00 -1.0000e+00
      -14  1    3    3    0    0 -3.4548647803e+01 -1.8617567307e+01 -4.6704047266e+01 6.1004023708e+01 0.0000000000e+00 0.0000e+00 1.0000e+00
<mgrwt>
<rscale>  0 0.78952838E+02</rscale>
<asrwt>0</asrwt>
<pdfrwt beam="1">  1        3 0.18576005E-01 0.78952838E+02</pdfrwt>
<pdfrwt beam="2">  1       -4 0.19856215E-02 0.78952838E+02</pdfrwt>
<totfact> 0.42721703E+04</totfact>
</mgrwt>
</event>
<event>
 5      1 +7.5707000e+03 7.97961600e+01 7.54677100e-03 1.32963100e-01
        1 -1    0    0  501    0 +0.0000000000e+00 +0.0000000000e+00 +8.4772610840e+00 8.4772610840e+00 0.0000000000e+00 0.0000e+00 -1.0000e+00
       -2 -1    0    0    0  501 -0.0000000000e+00 -0.0000000000e+00 -1.8777963233e+02 1.8777963233e+02 0.0000000000e+00 0.0000e+00 1.0000e+00
      -24  2    1    2    0    0 +0.0000000000e+00 +0.0000000000e+00 -1.7930237125e+02 1.9625689342e+02 7.9796164558e+01 0.0000e+00 0.0000e+00
       13  1    3    3    0    0 -3.9733806573e+01 -1.6540721664e+00 -8.1740367941e+01 9.0901040096e+01 0.0000000000e+00 0.0000e+00 -1.0000e+00
      -14  1    3    3    0    0 +3.9733806573e+01 +1.6540721664e+00 -9.7562003309e+01 1.0535585332e+02 0.0000000000e+00 0.0000e+00 1.0000e+00
<mgrwt>
<rscale>  0 0.79796165E+02</rscale>
<asrwt>0</asrwt>
<pdfrwt beam="1">  1        1 0.13041941E-02 0.79796165E+02</pdfrwt>
<pdfrwt beam="2">  1       -2 0.28889173E-01 0.79796165E+02</pdfrwt>
<totfact> 0.87805371E+04</totfact>
</mgrwt>
</event>
<event>
 5      1 +7.5707000e+03 8.03915600e+01 7.54677100e-03 1.32794400e-01
        1 -1    0    0  501    0 +0.0000000000e+00 +0.0000000000e+00 +2.0892942277e+02 2.0892942277e+02 0.0000000000e+00 0.0000e+00 -1.0000e+00
       -2 -1    0    0    0  501 -0.0000000000e+00 -0.0000000000e+00 -7.7332373172e+00 7.7332373172e+00 0.0000000000e+00 0.0000e+00 1.0000e+00
      -24  2    1    2    0    0 +0.0000000000e+00 +0.0000000000e+00 +2.0119618545e+02 2.1666266009e+02 8.0391561966e+01 0.0000e+00 0.0000e+00
       13  1    3    3    0    0 +2.3800355449e+00 +3.9107735263e+01 +1.2479715039e+02 1.3080293679e+02 0.0000000000e+00 0.0000e+00 -1.0000e+00
      -14  1    3    3    0    0 -2.3800355449e+00 -3.9107735263e+01 +7.6399035059e+01 8.5859723297e+01 0.0000000000e+00 0.0000e+00 1.0000e+00
<mgrwt>
<rscale>  0 0.80391562E+02</rscale>
<asrwt>0</asrwt>
<pdfrwt beam="1">  1        1 0.32142984E-01 0.80391562E+02</pdfrwt>
<pdfrwt beam="2">  1       -2 0.11897290E-02 0.80391562E+02</pdfrwt>
<totfact> 0.16599651E+05</totfact>
</mgrwt>
</event>
<event>
 5      1 +7.5707000e+03 7.09424900e+01 7.54677100e-03 1.35691700e-01
       -2 -1    0    0    0  501 -0.0000000000e+00 +0.0000000000e+00 +1.1256833692e+02 1.1256833692e+02 0.0000000000e+00 0.0000e+00 1.0000e+00
        1 -1    0    0  501    0 +0.0000000000e+00 -0.0000000000e+00 -1.1177291774e+01 1.1177291774e+01 0.0000000000e+00 0.0000e+00 -1.0000e+00
      -24  2    1    2    0    0 +0.0000000000e+00 +0.0000000000e+00 +1.0139104515e+02 1.2374562870e+02 7.0942487870e+01 0.0000e+00 0.0000e+00
       11  1    3    3    0    0 +2.6638824574e+01 +5.8429957164e+00 +1.1132316290e+01 2.9456680730e+01 0.0000000000e+00 0.0000e+00 -1.0000e+00
      -12  1    3    3    0    0 -2.6638824574e+01 -5.8429957164e+00 +9.0258728858e+01 9.4288947966e+01 0.0000000000e+00 0.0000e+00 1.0000e+00
<mgrwt>
<rscale>  0 0.70942488E+02</rscale>
<asrwt>0</asrwt>
<pdfrwt beam="1">  1        1 0.17195834E-02 0.70942488E+02</pdfrwt>
<pdfrwt beam="2">  1       -2 0.17318205E-01 0.70942488E+02</pdfrwt>
<totfact> 0.13990634E+05</totfact>
</mgrwt>
</event>
<event>
 5      1 +7.5707000e+03 8.22342900e+01 7.54677100e-03 1.32282800e-01
       -2 -1    0    0    0  501 -0.0000000000e+00 +0.0000000000e+00 +3.8352772883e+02 3.8352772883e+02 0.0000000000e+00 0.0000e+00 1.0000e+00
        1 -1    0    0  501    0 +0.0000000000e+00 -0.0000000000e+00 -4.4080765238e+00 4.4080765238e+00 0.0000000000e+00 0.0000e+00 -1.0000e+00
      -24  2    1    2    0    0 +0.0000000000e+00 +0.0000000000e+00 +3.7911965230e+02 3.8793580535e+02 8.2234289142e+01 0.0000e+00 0.0000e+00
       11  1    3    3    0    0 -2.9319598837e+00 +1.6059231276e+01 +1.1534877843e+01 1.9988714435e+01 0.0000000000e+00 0.0000e+00 -1.0000e+00
      -12  1    3    3    0    0 +2.9319598837e+00 -1.6059231276e+01 +3.6758477446e+02 3.6794709091e+02 0.0000000000e+00 0.0000e+00 1.0000e+00
<mgrwt>
<rscale>  0 0.82234289E+02</rscale>
<asrwt>0</asrwt>
<pdfrwt beam="1">  1        1 0.67816592E-03 0.82234289E+02</pdfrwt>
<pdfrwt beam="2">  1       -2 0.59004239E-01 0.82234289E+02</pdfrwt>
<totfact> 0.56562319E+04</totfact>
</mgrwt>
</event>
<event>
 5      1 +7.5707000e+03 8.54924000e+01 7.54677100e-03 1.31415000e-01
        1 -1    0    0  501    0 +0.0000000000e+00 +0.0000000000e+00 +2.8277414573e+02 2.8277414573e+02 0.0000000000e+00 0.0000e+00 -1.0000e+00
       -2 -1    0    0    0  501 -0.0000000000e+00 -0.0000000000e+00 -6.4618272954e+00 6.4618272954e+00 0.0000000000e+00 0.0000e+00 1.0000e+00
      -24  2    1    2    0    0 +0.0000000000e+00 +0.0000000000e+00 +2.7631231843e+02 2.8923597302e+02 8.5492401845e+01 0.0000e+00 0.0000e+00
       13  1    3    3    0    0 -5.6613325500e-01 +4.1976413256e+01 +1.6541078136e+02 1.7065481642e+02 0.0000000000e+00 0.0000e+00 -1.0000e+00
      -14  1    3    3    0    0 +5.6613325500e-01 -4.1976413256e+01 +1.1090153707e+02 1.1858115660e+02 0.0000000000e+00 0.0000e+00 1.0000e+00
<mgrwt>
<rscale>  0 0.85492402E+02</rscale>
<asrwt>0</asrwt>
<pdfrwt beam="1">  1        1 0.43503705E-01 0.85492402E+02</pdfrwt>
<pdfrwt beam="2">  1       -2 0.99412749E-03 0.85492402E+02</pdfrwt>
<totfact> 0.14961856E+05</totfact>
</mgrwt>
</event>
<event>
 5      1 +7.5707000e+03 7.99391600e+01 7.54677100e-03 1.32922400e-01
        3 -1    0    0  501    0 +0.0000000000e+00 +0.0000000000e+00 +5.1142210370e+00 5.1142210370e+00 0.0000000000e+00 0.0000e+00 -1.0000e+00
       -4 -1    0    0    0  501 -0.0000000000e+00 -0.0000000000e+00 -3.1237743780e+02 3.1237743780e+02 0.0000000000e+00 0.0000e+00 1.0000e+00
      -24  2    1    2    0    0 +0.0000000000e+00 +0.0000000000e+00 -3.0726321677e+02 3.1749165884e+02 7.9939158462e+01 0.0000e+00 0.0000e+00
       13  1    3    3    0    0 -1.4434477287e+01 +2.2044632592e+01 -3.4266860595e+01 4.3226585520e+01 0.0000000000e+00 0.0000e+00 -1.0000e+00
      -14  1    3    3    0    0 +1.4434477287e+01 -2.2044632592e+01 -2.7299635617e+02 2.7426507332e+02 0.0000000000e+00 0.0000e+00 1.0000e+00
<mgrwt>
<rscale>  0 0.79939158E+02</rscale>
<asrwt>0</asrwt>
<pdfrwt beam="1">  1        3 0.78680342E-03 0.79939158E+02</pdfrwt>
<pdfrwt beam="2">  1       -4 0.48058056E-01 0.79939158E+02</pdfrwt>
<totfact> 0.26870738E+04</totfact>
</mgrwt>
</event>
<event>
 5      1 +7.5707000e+03 7.93405800e+01 7.54677100e-03 1.33093300e-01
       -2 -1    0    0    0  501 -0.0000000000e+00 +0.0000000000e+00 +9.9214334993e+00 9.9214334993e+00 0.0000000000e+00 0.0000e+00 1.0000e+00
        1 -1    0    0  501    0 +0.0000000000e+00 -0.0000000000e+00 -1.5861942229e+02 1.5861942229e+02 0.0000000000e+00 0.0000e+00 -1.0000e+00
      -24  2    1    2    0    0 +0.0000000000e+00 +0.0000000000e+00 -1.4869798879e+02 1.6854085578e+02 7.9340583560e+01 0.0000e+00 0.0000e+00
       11  1    3    3    0    0 +2.7468891715e+01 -2.7730287854e+01 -8.9403339911e+01 9.7552376003e+01 0.0000000000e+00 0.0000e+00 -1.0000e+00
      -12  1    3    3    0    0 -2.7468891715e+01 +2.7730287854e+01 -5.9294648875e+01 7.0988479782e+01 0.0000000000e+00 0.0000e+00 1.0000e+00
<mgrwt>
<rscale>  0 0.79340584E+02</rscale>
<asrwt>0</asrwt>
<pdfrwt beam="1">  1        1 0.24402986E-01 0.79340584E+02</pdfrwt>
<pdfrwt beam="2">  1       -2 0.15263745E-02 0.79340584E+02</pdfrwt>
<totfact> 0.16309072E+05</totfact>
</mgrwt>
</event>
<event>
 5      1 +7.5707000e+03 7.50958400e+01 7.54677100e-03 1.34357400e-01
        1 -1    0    0  501    0 +0.0000000000e+00 +0.0000000000e+00 +2.1331317032e+01 2.1331317032e+01 0.0000000000e+00 0.0000e+00 -1.0000e+00
       -2 -1    0    0    0  501 -0.0000000000e+00 -0.0000000000e+00 -6.6092792064e+01 6.6092792064e+01 0.0000000000e+00 0.0000e+00 1.0000e+00
      -24  2    1    2    0    0 +0.0000000000e+00 +0.0000000000e+00 -4.4761475032e+01 8.7424109096e+01 7.5095840125e+01 0.0000e+00 0.0000e+00
       11  1    3    3    0    0 +1.6660617065e+01 -3.3038380115e+01 -1.4950507062e+01 3.9907748408e+01 0.0000000000e+00 0.0000e+00 -1.0000e+00
      -12  1    3    3    0    0 -1.6660617065e+01 +3.3038380115e+01 -2.9810967970e+01 4.7516360687e+01 0.0000000000e+00 0.0000e+00 1.0000e+00
<mgrwt>
<rscale>  0 0.75095840E+02</rscale>
<asrwt>0</asrwt>
<pdfrwt beam="1">  1        1 0.32817411E-02 0.75095840E+02</pdfrwt>
<pdfrwt beam="2">  1       -2 0.10168122E-01 0.75095840E+02</pdfrwt>
<totfact> 0.13643365E+05</totfact>
</mgrwt>
</event>
<event>
 5      1 +7.5707000e+03 8.04210800e+01 7.54677100e-03 1.32786100e-01
       -2 -1    0    0    0  501 -0.0000000000e+00 +0.0000000000e+00 +1.7015348491e+01 1.7015348491e+01 0.0000000000e+00 0.0000e+00 1.0000e+00
        1 -1    0    0  501    0 +0.0000000000e+00 -0.0000000000e+00 -9.5025245013e+01 9.5025245013e+01 0.0000000000e+00 0.0000e+00 -1.0000e+00
      -24  2    1    2    0    0 +0.0000000000e+00 +0.0000000000e+00 -7.8009896522e+01 1.1204059350e+02 8.0421083289e+01 0.0000e+00 0.0000e+00
       11  1    3    3    0    0 -3.9848329180e+01 -5.0226199932e+00 -3.6299315616e+01 5.4136460581e+01 0.0000000000e+00 0.0000e+00 -1.0000e+00
      -12  1    3    3    0    0 +3.9848329180e+01 +5.0226199932e+00 -4.1710580906e+01 5.7904132923e+01 0.0000000000e+00 0.0000e+00 1.0000e+00
<mgrwt>
<rscale>  0 0.80421083E+02</rscale>
<asrwt>0</asrwt>
<pdfrwt beam="1">  1        1 0.14619269E-01 0.80421083E+02</pdfrwt>
<pdfrwt beam="2">  1       -2 0.26177459E-02 0.80421083E+02</pdfrwt>
<totfact> 0.14368453E+05</totfact>
</mgrwt>
</event>
<event>
 5      1 +7.5707000e+03 8.08688700e+01 7.54677100e-03 1.32660400e-01
       -2 -1    0    0    0  501 -0.0000000000e+00 +0.0000000000e+00 +1.1779261993e+01 1.1779261993e+01 0.0000000000e+00 0.0000e+00 1.0000e+00
        1 -1    0    0  501    0 +0.0000000000e+00 -0.0000000000e+00 -1.3879845222e+02 1.3879845222e+02 0.0000000000e+00 0.0000e+00 -1.0000e+00
      -24  2    1    2    0    0 +0.0000000000e+00 +0.0000000000e+00 -1.2701919023e+02 1.5057771422e+02 8.0868865033e+01 0.0000e+00 0.0000e+00
       11  1    3    3    0    0 +2.0885613546e+00 +3.7012368612e+01 -9.3571838826e+01 1.0064773490e+02 0.0000000000e+00 0.0000e+00 -1.0000e+00
      -12  1    3    3    0    0 -2.0885613546e+00 -3.7012368612e+01 -3.3447351405e+01 4.9929979319e+01 0.0000000000e+00 0.0000e+00 1.0000e+00
<mgrwt>
<rscale>  0 0.80868865E+02</rscale>
<asrwt>0</asrwt>
<pdfrwt beam="1">  1        1 0.21353607E-01 0.80868865E+02</pdfrwt>
<pdfrwt beam="2">  1       -2 0.18121942E-02 0.80868865E+02</pdfrwt>
<totfact> 0.15121737E+05</totfact>
</mgrwt>
</event>
<event>
 5      1 +7.5707000e+03 8.00086600e+01 7.54677100e-03 1.32902700e-01
        1 -1    0    0  501    0 +0.0000000000e+00 +0.0000000000e+00 +9.9704241836e+00 9.9704241836e+00 0.0000000000e+00 0.0000e+00 -1.0000e+00
       -2 -1    0    0    0  501 -0.0000000000e+00 -0.0000000000e+00 -1.6050936026e+02 1.6050936026e+02 0.0000000000e+00 0.0000e+00 1.0000e+00
      -24  2    1    2    0    0 +0.0000000000e+00 +0.0000000000e+00 -1.5053893608e+02 1.7047978444e+02 8.0008659712e+01 0.0000e+00 0.0000e+00
       13  1    3    3    0    0 -6.1839011267e+00 -2.7410004072e+01 -1.4596941595e+01 3.1664169977e+01 0.0000000000e+00 0.0000e+00 -1.0000e+00
      -14  1    3    3    0    0 +6.1839011267e+00 +2.7410004072e+01 -1.3594199448e+02 1.3881561447e+02 0.0000000000e+00 0.0000e+00 1.0000e+00
<mgrwt>
<rscale>  0 0.80008660E+02</rscale>
<asrwt>0</asrwt>
<pdfrwt beam="1">  1        1 0.15339116E-02 0.80008660E+02</pdfrwt>
<pdfrwt beam="2">  1       -2 0.24693744E-01 0.80008660E+02</pdfrwt>
<totfact> 0.92354322E+04</totfact>
</mgrwt>
</event>
<event>
 5      1 +7.5707000e+03 7.95384600e+01 7.54677100e-03 1.33036600e-01
        1 -1    0    0  501    0 +0.0000000000e+00 +0.0000000000e+00 +2.5371834897e+01 2.5371834897e+01 0.0000000000e+00 0.0000e+00 -1.0000e+00
       -2 -1    0    0    0  501 -0.0000000000e+00 -0.0000000000e+00 -6.2336511699e+01 6.2336511699e+01 0.0000000000e+00 0.0000e+00 1.0000e+00
      -24  2    1    2    0    0 +0.0000000000e+00 +0.0000000000e+00 -3.6964676802e+01 8.7708346597e+01 7.9538460707e+01 0.0000e+00 0.0000e+00
       11  1    3    3    0    0 +3.4531790299e+01 -7.5065515860e+00 +1.6342640944e+00 3.5376032523e+01 0.0000000000e+00 0.0000e+00 -1.0000e+00
      -12  1    3    3    0    0 -3.4531790299e+01 +7.5065515860e+00 -3.8598940896e+01 5.2332314073e+01 0.0000000000e+00 0.0000e+00 1.0000e+00
<mgrwt>
<rscale>  0 0.79538461E+02</rscale>
<asrwt>0</asrwt>
<pdfrwt beam="1">  1        1 0.39033593E-02 0.79538461E+02</pdfrwt>
<pdfrwt beam="2">  1       -2 0.95902324E-02 0.79538461E+02</pdfrwt>
<totfact> 0.11927616E+05</totfact>
</mgrwt>
</event>
<event>
 5      1 +7.5707000e+03 8.09908900e+01 7.54677100e-03 1.32626300e-01
        1 -1    0    0  501    0 +0.0000000000e+00 +0.0000000000e+00 +2.7325898307e+01 2.7325898307e+01 0.0000000000e+00 0.0000e+00 -1.0000e+00
       -2 -1    0    0    0  501 -0.0000000000e+00 -0.0000000000e+00 -6.0011978675e+01 6.0011978675e+01 0.0000000000e+00 0.0000e+00 1.0000e+00
      -24  2    1    2    0    0 +0.0000000000e+00 +0.0000000000e+00 -3.2686080368e+01 8.7337876983e+01 8.0990893969e+01 0.0000e+00 0.0000e+00
       13  1    3    3    0    0 +3.0480131854e+01 +1.5592609013e+01 +6.9784508579e+00 3.4940902536e+01 0.0000000000e+00 0.0000e+00 -1.0000e+00
      -14  1    3    3    0    0 -3.0480131854e+01 -1.5592609013e+01 -3.9664531226e+01 5.2396974446e+01 0.0000000000e+00 0.0000e+00 1.0000e+00
<mgrwt>
<rscale>  0 0.80990894E+02</rscale>
<asrwt>0</asrwt>
<pdfrwt beam="1">  1        1 0.42039844E-02 0.80990894E+02</pdfrwt>
<pdfrwt beam="2">  1       -2 0.92326120E-02 0.80990894E+02</pdfrwt>
<totfact> 0.11475566E+05</totfact>
</mgrwt>
</event>
<event>
 5      1 +7.5707000e+03 8.05714300e+01 7.54677100e-03 1.32743800e-01
        3 -1    0    0  501    0 +0.0000000000e+00 +0.0000000000e+00 +2.0479190669e+02 2.0479190669e+02 0.0000000000e+00 0.0000e+00 -1.0000e+00
       -4 -1    0    0    0  501 -0.0000000000e+00 -0.0000000000e+00 -7.9248194632e+00 7.9248194632e+00 0.0000000000e+00 0.0000e+00 1.0000e+00
      -24  2    1    2    0    0 +0.0000000000e+00 +0.0000000000e+00 +1.9686708723e+02 2.1271672615e+02 8.0571431365e+01 0.0000e+00 0.0000e+00
       11  1    3    3    0    0 +1.7034518378e+01 +2.7258155786e+01 +1.6254817045e+02 1.6569577421e+02 0.0000000000e+00 0.0000e+00 -1.0000e+00
      -12  1    3    3    0    0 -1.7034518378e+01 -2.7258155786e+01 +3.4318916777e+01 4.7020951947e+01 0.0000000000e+00 0.0000e+00 1.0000e+00
<mgrwt>
<rscale>  0 0.80571431E+02</rscale>
<asrwt>0</asrwt>
<pdfrwt beam="1">  1        3 0.31506443E-01 0.80571431E+02</pdfrwt>
<pdfrwt beam="2">  1       -4 0.12192032E-02 0.80571431E+02</pdfrwt>
<totfact> 0.35081739E+04</totfact>
</mgrwt>
</event>
<event>
 5      1 +7.5707000e+03 8.00156600e+01 7.54677100e-03 1.32900700e-01
       -4 -1    0    0    0  501 -0.0000000000e+00 +0.0000000000e+00 +1.5021538333e+02 1.5021538333e+02 0.0000000000e+00 0.0000e+00 1.0000e+00
        3 -1    0    0  501    0 +0.0000000000e+00 -0.0000000000e+00 -1.0655542487e+01 1.0655542487e+01 0.0000000000e+00 0.0000e+00 -1.0000e+00
      -24  2    1    2    0    0 +0.0000000000e+00 +0.0000000000e+00 +1.3955984084e+02 1.6087092582e+02 8.0015658451e+01 0.0000e+00 0.0000e+00
       11  1    3    3    0    0 +2.4359329469e+01 +2.9662847768e+01 +4.7090285533e+01 6.0751596370e+01 0.0000000000e+00 0.0000e+00 -1.0000e+00
      -12  1    3    3    0    0 -2.4359329469e+01 -2.9662847768e+01 +9.2469555311e+01 1.0011932945e+02 0.0000000000e+00 0.0000e+00 1.0000e+00
<mgrwt>
<rscale>  0 0.80015658E+02</rscale>
<asrwt>0</asrwt>
<pdfrwt beam="1">  1        3 0.16393143E-02 0.80015658E+02</pdfrwt>
<pdfrwt beam="2">  1       -4 0.23110057E-01 0.80015658E+02</pdfrwt>
<totfact> 0.36357592E+04</totfact>
</mgrwt>
</event>
<event>
 5      1 +7.5707000e+03 7.99980900e+01 7.54677100e-03 1.32905700e-01
        1 -1    0    0  501    0 +0.0000000000e+00 +0.0000000000e+00 +9.1452479422e+01 9.1452479422e+01 0.0000000000e+00 0.0000e+00 -1.0000e+00
       -2 -1    0    0    0  501 -0.0000000000e+00 -0.0000000000e+00 -1.7494591793e+01 1.7494591793e+01 0.0000000000e+00 0.0000e+00 1.0000e+00
      -24  2    1    2    0    0 +0.0000000000e+00 +0.0000000000e+00 +7.3957887629e+01 1.0894707122e+02 7.9998094876e+01 0.0000e+00 0.0000e+00
       13  1    3    3    0    0 +3.8883288969e+01 -6.1324298307e+00 +2.7309954529e+01 4.7909816041e+01 0.0000000000e+00 0.0000e+00 -1.0000e+00
      -14  1    3    3    0    0 -3.8883288969e+01 +6.1324298307e+00 +4.6647933100e+01 6.1037255174e+01 0.0000000000e+00 0.0000e+00 1.0000e+00
<mgrwt>
<rscale>  0 0.79998095E+02</rscale>
<asrwt>0</asrwt>
<pdfrwt beam="1">  1        1 0.14069612E-01 0.79998095E+02</pdfrwt>
<pdfrwt beam="2">  1       -2 0.26914757E-02 0.79998095E+02</pdfrwt>
<totfact> 0.14482835E+05</totfact>
</mgrwt>
</event>
<event>
 5      1 +7.5707000e+03 8.21181900e+01 7.54677100e-03 1.32314600e-01
        3 -1    0    0  501    0 +0.0000000000e+00 +0.0000000000e+00 +5.0502627561e+01 5.0502627561e+01 0.0000000000e+00 0.0000e+00 -1.0000e+00
       -4 -1    0    0    0  501 -0.0000000000e+00 -0.0000000000e+00 -3.3381419138e+01 3.3381419138e+01 0.0000000000e+00 0.0000e+00 1.0000e+00
      -24  2    1    2    0    0 +0.0000000000e+00 +0.0000000000e+00 +1.7121208423e+01 8.3884046699e+01 8.2118192337e+01 0.0000e+00 0.0000e+00
       13  1    3    3    0    0 -7.7144663956e+00 +1.4402848355e+01 +4.7038828488e+01 4.9795646577e+01 0.0000000000e+00 0.0000e+00 -1.0000e+00
      -14  1    3    3    0    0 +7.7144663956e+00 -1.4402848355e+01 -2.9917620065e+01 3.4088400122e+01 0.0000000000e+00 0.0000e+00 1.0000e+00
<mgrwt>
<rscale>  0 0.82118192E+02</rscale>
<asrwt>0</asrwt>
<pdfrwt beam="1">  1        3 0.77696350E-02 0.82118192E+02</pdfrwt>
<pdfrwt beam="2">  1       -4 0.51356030E-02 0.82118192E+02</pdfrwt>
<totfact> 0.41928992E+04</totfact>
</mgrwt>
</event>
<event>
 5      1 +7.5707000e+03 8.01016600e+01 7.54677100e-03 1.32876300e-01
        1 -1    0    0  501    0 +0.0000000000e+00 +0.0000000000e+00 +1.7996630302e+02 1.7996630302e+02 0.0000000000e+00 0.0000e+00 -1.0000e+00
       -2 -1    0    0    0  501 -0.0000000000e+00 -0.0000000000e+00 -8.9131634846e+00 8.9131634846e+00 0.0000000000e+00 0.0000e+00 1.0000e+00
      -24  2    1    2    0    0 +0.0000000000e+00 +0.0000000000e+00 +1.7105313954e+02 1.8887946651e+02 8.0101662418e+01 0.0000e+00 0.0000e+00
       11  1    3    3    0    0 -2.7049681398e+01 -1.7025696381e+01 +1.4243737318e+02 1.4597933032e+02 0.0000000000e+00 0.0000e+00 -1.0000e+00
      -12  1    3    3    0    0 +2.7049681398e+01 +1.7025696381e+01 +2.8615766356e+01 4.2900136190e+01 0.0000000000e+00 0.0000e+00 1.0000e+00
<mgrwt>
<rscale>  0 0.80101662E+02</rscale>
<asrwt>0</asrwt>
<pdfrwt beam="1">  1        1 0.27687121E-01 0.80101662E+02</pdfrwt>
<pdfrwt beam="2">  1       -2 0.13712561E-02 0.80101662E+02</pdfrwt>
<totfact> 0.16282697E+05</totfact>
</mgrwt>
</event>
<event>
 5      1 +7.5707000e+03 7.84076300e+01 7.54677100e-03 1.33363200e-01
       -2 -1    0    0    0  501 -0.0000000000e+00 +0.0000000000e+00 +3.7627691042e+01 3.7627691042e+01 0.0000000000e+00 0.0000e+00 1.0000e+00
        1 -1    0    0  501    0 +0.0000000000e+00 -0.0000000000e+00 -4.0845958598e+01 4.0845958598e+01 0.0000000000e+00 0.0000e+00 -1.0000e+00
      -24  2    1    2    0    0 +0.0000000000e+00 +0.0000000000e+00 -3.2182675563e+00 7.8473649640e+01 7.8407629997e+01 0.0000e+00 0.0000e+00
       11  1    3    3    0    0 +2.0875505236e+01 +3.0860608244e+01 -1.3816750048e+01 3.9737468993e+01 0.0000000000e+00 0.0000e+00 -1.0000e+00
      -12  1    3    3    0    0 -2.0875505236e+01 -3.0860608244e+01 +1.0598482491e+01 3.8736180648e+01 0.0000000000e+00 0.0000e+00 1.0000e+00
<mgrwt>
<rscale>  0 0.78407630E+02</rscale>
<asrwt>0</asrwt>
<pdfrwt beam="1">  1        1 0.62839936E-02 0.78407630E+02</pdfrwt>
<pdfrwt beam="2">  1       -2 0.57888756E-02 0.78407630E+02</pdfrwt>
<totfact> 0.13480727E+05</totfact>
</mgrwt>
</event>
<event>
 5      1 +7.5707000e+03 7.88486500e+01 7.54677100e-03 1.33235100e-01
        1 -1    0    0  501    0 +0.0000000000e+00 +0.0000000000e+00 +1.2032319747e+02 1.2032319747e+02 0.0000000000e+00 0.0000e+00 -1.0000e+00
       -2 -1    0    0    0  501 -0.0000000000e+00 -0.0000000000e+00 -1.2917519594e+01 1.2917519594e+01 0.0000000000e+00 0.0000e+00 1.0000e+00
      -24  2    1    2    0    0 +0.0000000000e+00 +0.0000000000e+00 +1.0740567788e+02 1.3324071707e+02 7.8848646429e+01 0.0000e+00 0.0000e+00
       11  1    3    3    0    0 +3.3155978019e+00 -2.8646577760e+01 +9.9129312354e+01 1.0323875326e+02 0.0000000000e+00 0.0000e+00 -1.0000e+00
      -12  1    3    3    0    0 -3.3155978019e+00 +2.8646577760e+01 +8.2763655256e+00 3.0001963810e+01 0.0000000000e+00 0.0000e+00 1.0000e+00
<mgrwt>
<rscale>  0 0.78848646E+02</rscale>
<asrwt>0</asrwt>
<pdfrwt beam="1">  1        1 0.18511260E-01 0.78848646E+02</pdfrwt>
<pdfrwt beam="2">  1       -2 0.19873108E-02 0.78848646E+02</pdfrwt>
<totfact> 0.15775840E+05</totfact>
</mgrwt>
</event>
<event>
 5      1 +7.5707000e+03 8.66702400e+01 7.54677100e-03 1.31112200e-01
        1 -1    0    0  501    0 +0.0000000000e+00 +0.0000000000e+00 +1.7093322178e+01 1.7093322178e+01 0.0000000000e+00 0.0000e+00 -1.0000e+00
       -2 -1    0    0    0  501 -0.0000000000e+00 -0.0000000000e+00 -1.0986352215e+02 1.0986352215e+02 0.0000000000e+00 0.0000e+00 1.0000e+00
      -24  2    1    2    0    0 +0.0000000000e+00 +0.0000000000e+00 -9.2770199967e+01 1.2695684432e+02 8.6670238945e+01 0.0000e+00 0.0000e+00
       11  1    3    3    0    0 -7.6755084142e+00 +1.5340624544e+01 +1.1908441803e+01 2.0882030001e+01 0.0000000000e+00 0.0000e+00 -1.0000e+00
      -12  1    3    3    0    0 +7.6755084142e+00 -1.5340624544e+01 -1.0467864177e+02 1.0607481432e+02 0.0000000000e+00 0.0000e+00 1.0000e+00
<mgrwt>
<rscale>  0 0.86670239E+02</rscale>
<asrwt>0</asrwt>
<pdfrwt beam="1">  1        1 0.26297418E-02 0.86670239E+02</pdfrwt>
<pdfrwt beam="2">  1       -2 0.16902081E-01 0.86670239E+02</pdfrwt>
<totfact> 0.84346590E+04</totfact>
</mgrwt>
</event>
<event>
 5      1 +7.5707000e+03 8.79898000e+01 7.54677100e-03 1.30779400e-01
       -4 -1    0    0    0  501 -0.0000000000e+00 +0.0000000000e+00 +1.1670054962e+01 1.1670054962e+01 0.0000000000e+00 0.0000e+00 1.0000e+00
        3 -1    0    0  501    0 +0.0000000000e+00 -0.0000000000e+00 -1.6585622799e+02 1.6585622799e+02 0.0000000000e+00 0.0000e+00 -1.0000e+00
      -24  2    1    2    0    0 +0.0000000000e+00 +0.0000000000e+00 -1.5418617303e+02 1.7752628295e+02 8.7989801600e+01 0.0000e+00 0.0000e+00
       13  1    3    3    0    0 -9.8677219568e+00 -3.1509223568e+01 -1.3575390725e+02 1.3971158306e+02 0.0000000000e+00 0.0000e+00 -1.0000e+00
      -14  1    3    3    0    0 +9.8677219568e+00 +3.1509223568e+01 -1.8432265779e+01 3.7814699896e+01 0.0000000000e+00 0.0000e+00 1.0000e+00
<mgrwt>
<rscale>  0 0.87989802E+02</rscale>
<asrwt>0</asrwt>
<pdfrwt beam="1">  1        3 0.25516341E-01 0.87989802E+02</pdfrwt>
<pdfrwt beam="2">  1       -4 0.17953932E-02 0.87989802E+02</pdfrwt>
<totfact> 0.29467805E+04</totfact>
</mgrwt>
</event>
<event>
 5      1 +7.5707000e+03 8.09660500e+01 7.54677100e-03 1.32633200e-01
       -2 -1    0    0    0  501 -0.0000000000e+00 +0.0000000000e+00 +1.1290011589e+01 1.1290011589e+01 0.0000000000e+00 0.0000e+00 1.0000e+00
        1 -1    0    0  501    0 +0.0000000000e+00 -0.0000000000e+00 -1.4516152903e+02 1.4516152903e+02 0.0000000000e+00 0.0000e+00 -1.0000e+00
      -24  2    1    2    0    0 +0.0000000000e+00 +0.0000000000e+00 -1.3387151744e+02 1.5645154062e+02 8.0966050788e+01 0.0000e+00 0.0000e+00
       13  1    3    3    0    0 +1.1788591130e+01 -2.5289163507e+01 -1.2361416992e+02 1.2672401382e+02 0.0000000000e+00 0.0000e+00 -1.0000e+00
      -14  1    3    3    0    0 -1.1788591130e+01 +2.5289163507e+01 -1.0257347516e+01 2.9727526802e+01 0.0000000000e+00 0.0000e+00 1.0000e+00
<mgrwt>
<rscale>  0 0.80966051E+02</rscale>
<asrwt>0</asrwt>
<pdfrwt beam="1">  1        1 0.22332543E-01 0.80966051E+02</pdfrwt>
<pdfrwt beam="2">  1       -2 0.17369248E-02 0.80966051E+02</pdfrwt>
<totfact> 0.15197429E+05</totfact>
</mgrwt>
</event>
<event>
 5      1 +7.5707000e+03 7.94732500e+01 7.54677100e-03 1.33055300e-01
       -4 -1    0    0    0  501 -0.0000000000e+00 +0.0000000000e+00 +3.1170930692e+01 3.1170930692e+01 0.0000000000e+00 0.0000e+00 1.0000e+00
        3 -1    0    0  501    0 +0.0000000000e+00 -0.0000000000e+00 -5.0656145429e+01 5.0656145429e+01 0.0000000000e+00 0.0000e+00 -1.0000e+00
      -24  2    1    2    0    0 +0.0000000000e+00 +0.0000000000e+00 -1.9485214736e+01 8.1827076121e+01 7.9473245770e+01 0.0000e+00 0.0000e+00
       11  1    3    3    0    0 +1.3757318469e+01 -3.5667560910e+01 +1.4210569271e+00 3.8255171095e+01 0.0000000000e+00 0.0000e+00 -1.0000e+00
      -12  1    3    3    0    0 -1.3757318469e+01 +3.5667560910e+01 -2.0906271663e+01 4.3571905026e+01 0.0000000000e+00 0.0000e+00 1.0000e+00
<mgrwt>
<rscale>  0 0.79473246E+02</rscale>
<asrwt>0</asrwt>
<pdfrwt beam="1">  1        3 0.77932532E-02 0.79473246E+02</pdfrwt>
<pdfrwt beam="2">  1       -4 0.47955278E-02 0.79473246E+02</pdfrwt>
<totfact> 0.46041763E+04</totfact>
</mgrwt>
</event>
<event>
 5      1 +7.5707000e+03 8.20411300e+01 7.54677100e-03 1.32335700e-01
       -4 -1    0    0    0  501 -0.0000000000e+00 +0.0000000000e+00 +2.3002129974e+02 2.3002129974e+02 0.0000000000e+00 0.0000e+00 1.0000e+00
        3 -1    0    0  501    0 +0.0000000000e+00 -0.0000000000e+00 -7.3153522772e+00 7.3153522772e+00 0.0000000000e+00 0.0000e+00 -1.0000e+00
      -24  2    1    2    0    0 +0.0000000000e+00 +0.0000000000e+00 +2.2270594746e+02 2.3733665202e+02 8.2041132094e+01 0.0000e+00 0.0000e+00
       11  1    3    3    0    0 -2.5934114003e+00 -3.6072982057e+01 +5.5354575369e+01 6.6121969356e+01 0.0000000000e+00 0.0000e+00 -1.0000e+00
      -12  1    3    3    0    0 +2.5934114003e+00 +3.6072982057e+01 +1.6735137209e+02 1.7121468266e+02 0.0000000000e+00 0.0000e+00 1.0000e+00
<mgrwt>
<rscale>  0 0.82041132E+02</rscale>
<asrwt>0</asrwt>
<pdfrwt beam="1">  1        3 0.11254390E-02 0.82041132E+02</pdfrwt>
<pdfrwt beam="2">  1       -4 0.35387887E-01 0.82041132E+02</pdfrwt>
<totfact> 0.29063532E+04</totfact>
</mgrwt>
</event>
<event>
 5      1 +7.5707000e+03 7.93525900e+01 7.54677100e-03 1.33089900e-01
       -2 -1    0    0    0  501 -0.0000000000e+00 +0.0000000000e+00 +1.3590510860e+01 1.3590510860e+01 0.0000000000e+00 0.0000e+00 1.0000e+00
        1 -1    0    0  501    0 +0.0000000000e+00 -0.0000000000e+00 -1.1583143834e+02 1.1583143834e+02 0.0000000000e+00 0.0000e+00 -1.0000e+00
      -24  2    1    2    0    0 +0.0000000000e+00 +0.0000000000e+00 -1.0224092748e+02 1.2942194920e+02 7.9352590903e+01 0.0000e+00 0.0000e+00
       13  1    3    3    0    0 +2.7416875701e+01 -7.0032249918e+00 -9.6480235486e+01 1.0054434879e+02 0.0000000000e+00 0.0000e+00 -1.0000e+00
      -14  1    3    3    0    0 -2.7416875701e+01 +7.0032249918e+00 -5.7606919952e+00 2.8877600415e+01 0.0000000000e+00 0.0000e+00 1.0000e+00
<mgrwt>
<rscale>  0 0.79352591E+02</rscale>
<asrwt>0</asrwt>
<pdfrwt beam="1">  1        1 0.17820222E-01 0.79352591E+02</pdfrwt>
<pdfrwt beam="2">  1       -2 0.20908478E-02 0.79352591E+02</pdfrwt>
<totfact> 0.15406107E+05</totfact>
</mgrwt>
</event>
<event>
 5      1 +7.5707000e+03 8.25612400e+01 7.54677100e-03 1.32193600e-01
       -2 -1    0    0    0  501 -0.0000000000e+00 +0.0000000000e+00 +1.9536736213e+01 1.9536736213e+01 0.0000000000e+00 0.0000e+00 1.0000e+00
        1 -1    0    0  501    0 +0.0000000000e+00 -0.0000000000e+00 -8.7224879006e+01 8.7224879006e+01 0.0000000000e+00 0.0000e+00 -1.0000e+00
      -24  2    1    2    0    0 +0.0000000000e+00 +0.0000000000e+00 -6.7688142793e+01 1.0676161522e+02 8.2561236723e+01 0.0000e+00 0.0000e+00
       11  1    3    3    0    0 -1.7634663429e+01 +1.9944248553e+01 -7.4640636061e+01 7.9246318250e+01 0.0000000000e+00 0.0000e+00 -1.0000e+00
      -12  1    3    3    0    0 +1.7634663429e+01 -1.9944248553e+01 +6.9524932676e+00 2.7515296968e+01 0.0000000000e+00 0.0000e+00 1.0000e+00
<mgrwt>
<rscale>  0 0.82561237E+02</rscale>
<asrwt>0</asrwt>
<pdfrwt beam="1">  1        1 0.13419212E-01 0.82561237E+02</pdfrwt>
<pdfrwt beam="2">  1       -2 0.30056517E-02 0.82561237E+02</pdfrwt>
<totfact> 0.13188817E+05</totfact>
</mgrwt>
</event>
<event>
 5      1 +7.5707000e+03 8.16280100e+01 7.54677100e-03 1.32449400e-01
        1 -1    0    0  501    0 +0.0000000000e+00 +0.0000000000e+00 +4.4659364835e+01 4.4659364835e+01 0.0000000000e+00 0.0000e+00 -1.0000e+00
       -2 -1    0    0    0  501 -0.0000000000e+00 -0.0000000000e+00 -3.7299743792e+01 3.7299743792e+01 0.0000000000e+00 0.0000e+00 1.0000e+00
      -24  2    1    2    0    0 +0.0000000000e+00 +0.0000000000e+00 +7.3596210432e+00 8.1959108628e+01 8.1628006622e+01 0.0000e+00 0.0000e+00
       11  1    3    3    0    0 +2.3417135457e+00 -3.2073580715e+01 +2.8913097296e+01 4.3245408975e+01 0.0000000000e+00 0.0000e+00 -1.0000e+00
      -12  1    3    3    0    0 -2.3417135457e+00 +3.2073580715e+01 -2.1553476253e+01 3.8713699652e+01 0.0000000000e+00 0.0000e+00 1.0000e+00
<mgrwt>
<rscale>  0 0.81628007E+02</rscale>
<asrwt>0</asrwt>
<pdfrwt beam="1">  1        1 0.68706715E-02 0.81628007E+02</pdfrwt>
<pdfrwt beam="2">  1       -2 0.57384221E-02 0.81628007E+02</pdfrwt>
<totfact> 0.12214428E+05</totfact>
</mgrwt>
</event>
<event>
 5      1 +7.5707000e+03 8.00464600e+01 7.54677100e-03 1.32892000e-01
       -4 -1    0    0    0  501 -0.0000000000e+00 +0.0000000000e+00 +8.9260888903e+01 8.9260888903e+01 0.0000000000e+00 0.0000e+00 1.0000e+00
        3 -1    0    0  501    0 +0.0000000000e+00 -0.0000000000e+00 -1.7945810942e+01 1.7945810942e+01 0.0000000000e+00 0.0000e+00 -1.0000e+00
      -24  2    1    2    0    0 +0.0000000000e+00 +0.0000000000e+00 +7.1315077962e+01 1.0720669985e+02 8.0046462427e+01 0.0000e+00 0.0000e+00
       11  1    3    3    0    0 +3.8806875753e-01 +2.0315011738e+01 -1.0524415283e+01 2.2882605104e+01 0.0000000000e+00 0.0000e+00 -1.0000e+00
      -12  1    3    3    0    0 -3.8806875753e-01 -2.0315011738e+01 +8.1839493245e+01 8.4324094741e+01 0.0000000000e+00 0.0000e+00 1.0000e+00
<mgrwt>
<rscale>  0 0.80046462E+02</rscale>
<asrwt>0</asrwt>
<pdfrwt beam="1">  1        3 0.27608940E-02 0.80046462E+02</pdfrwt>
<pdfrwt beam="2">  1       -4 0.13732444E-01 0.80046462E+02</pdfrwt>
<totfact> 0.41336447E+04</totfact>
</mgrwt>
</event>
<event>
 5      1 +7.5707000e+03 8.16120800e+01 7.54677100e-03 1.32453800e-01
       -2 -1    0    0    0  501 -0.0000000000e+00 +0.0000000000e+00 +5.5343765655e+00 5.5343765655e+00 0.0000000000e+00 0.0000e+00 1.0000e+00
        1 -1    0    0  501    0 +0.0000000000e+00 -0.0000000000e+00 -3.0087088226e+02 3.0087088226e+02 0.0000000000e+00 0.0000e+00 -1.0000e+00
      -24  2    1    2    0    0 +0.0000000000e+00 +0.0000000000e+00 -2.9533650570e+02 3.0640525883e+02 8.1612076558e+01 0.0000e+00 0.0000e+00
       11  1    3    3    0    0 -1.1496655846e+01 -3.7263843816e+01 -1.9277833928e+02 1.9668313412e+02 0.0000000000e+00 0.0000e+00 -1.0000e+00
      -12  1    3    3    0    0 +1.1496655846e+01 +3.7263843816e+01 -1.0255816641e+02 1.0972212470e+02 0.0000000000e+00 0.0000e+00 1.0000e+00
<mgrwt>
<rscale>  0 0.81612077E+02</rscale>
<asrwt>0</asrwt>
<pdfrwt beam="1">  1        1 0.46287814E-01 0.81612077E+02</pdfrwt>
<pdfrwt beam="2">  1       -2 0.85144281E-03 0.81612077E+02</pdfrwt>
<totfact> 0.17125740E+05</totfact>
</mgrwt>
</event>
<event>
 5      1 +7.5707000e+03 8.06089400e+01 7.54677100e-03 1.32733200e-01
       -2 -1    0    0    0  501 -0.0000000000e+00 +0.0000000000e+00 +2.4486620077e+01 2.4486620077e+01 0.0000000000e+00 0.0000e+00 1.0000e+00
        1 -1    0    0  501    0 +0.0000000000e+00 -0.0000000000e+00 -6.6340316194e+01 6.6340316194e+01 0.0000000000e+00 0.0000e+00 -1.0000e+00
      -24  2    1    2    0    0 +0.0000000000e+00 +0.0000000000e+00 -4.1853696117e+01 9.0826936272e+01 8.0608935447e+01 0.0000e+00 0.0000e+00
       11  1    3    3    0    0 +1.6455480792e+01 +2.8387143485e+01 -4.7299712367e+01 5.7566270969e+01 0.0000000000e+00 0.0000e+00 -1.0000e+00
      -12  1    3    3    0    0 -1.6455480792e+01 -2.8387143485e+01 +5.4460162501e+00 3.3260665302e+01 0.0000000000e+00 0.0000e+00 1.0000e+00
<mgrwt>
<rscale>  0 0.80608935E+02</rscale>
<asrwt>0</asrwt>
<pdfrwt beam="1">  1        1 0.10206202E-01 0.80608935E+02</pdfrwt>
<pdfrwt beam="2">  1       -2 0.37671723E-02 0.80608935E+02</pdfrwt>
<totfact> 0.13470167E+05</totfact>
</mgrwt>
</event>
<event>
 5      1 +7.5707000e+03 7.99225400e+01 7.54677100e-03 1.32927100e-01
        1 -1    0    0  501    0 +0.0000000000e+00 +0.0000000000e+00 +4.8009000800e+00 4.8009000800e+00 0.0000000000e+00 0.0000e+00 -1.0000e+00
       -2 -1    0    0    0  501 -0.0000000000e+00 -0.0000000000e+00 -3.3262579895e+02 3.3262579895e+02 0.0000000000e+00 0.0000e+00 1.0000e+00
      -24  2    1    2    0    0 +0.0000000000e+00 +0.0000000000e+00 -3.2782489887e+02 3.3742669903e+02 7.9922543122e+01 0.0000e+00 0.0000e+00
       13  1    3    3    0    0 +2.2745320162e+01 +1.3748956646e+01 -3.7923647743e+01 4.6309679941e+01 0.0000000000e+00 0.0000e+00 -1.0000e+00
      -14  1    3    3    0    0 -2.2745320162e+01 -1.3748956646e+01 -2.8990125113e+02 2.9111701909e+02 0.0000000000e+00 0.0000e+00 1.0000e+00
<mgrwt>
<rscale>  0 0.79922543E+02</rscale>
<asrwt>0</asrwt>
<pdfrwt beam="1">  1        1 0.73860007E-03 0.79922543E+02</pdfrwt>
<pdfrwt beam="2">  1       -2 0.51173196E-01 0.79922543E+02</pdfrwt>
<totfact> 0.66460091E+04</totfact>
</mgrwt>
</event>
<event>
 5      1 +7.5707000e+03 8.08387800e+01 7.54677100e-03 1.32668800e-01
       -4 -1    0    0    0  501 -0.0000000000e+00 +0.0000000000e+00 +1.4064835493e+01 1.4064835493e+01 0.0000000000e+00 0.0000e+00 1.0000e+00
        3 -1    0    0  501    0 +0.0000000000e+00 -0.0000000000e+00 -1.1615686104e+02 1.1615686104e+02 0.0000000000e+00 0.0000e+00 -1.0000e+00
      -24  2    1    2    0    0 +0.0000000000e+00 +0.0000000000e+00 -1.0209202554e+02 1.3022169653e+02 8.0838781334e+01 0.0000e+00 0.0000e+00
       13  1    3    3    0    0 -1.0065866644e+01 +3.3172839946e+01 -1.7565703603e+01 3.8862744685e+01 0.0000000000e+00 0.0000e+00 -1.0000e+00
      -14  1    3    3    0    0 +1.0065866644e+01 -3.3172839946e+01 -8.4526321941e+01 9.1358951846e+01 0.0000000000e+00 0.0000e+00 1.0000e+00
<mgrwt>
<rscale>  0 0.80838781E+02</rscale>
<asrwt>0</asrwt>
<pdfrwt beam="1">  1        3 0.17870287E-01 0.80838781E+02</pdfrwt>
<pdfrwt beam="2">  1       -4 0.21638208E-02 0.80838781E+02</pdfrwt>
<totfact> 0.40356046E+04</totfact>
</mgrwt>
</event>
<event>
 5      1 +7.5707000e+03 5.53132700e+01 7.54677100e-03 1.41862300e-01
       -2 -1    0    0    0  501 -0.0000000000e+00 +0.0000000000e+00 +9.3532124365e+01 9.3532124365e+01 0.0000000000e+00 0.0000e+00 1.0000e+00
        1 -1    0    0  501    0 +0.0000000000e+00 -0.0000000000e+00 -8.1778276777e+00 8.1778276777e+00 0.0000000000e+00 0.0000e+00 -1.0000e+00
      -24  2    1    2    0    0 +0.0000000000e+00 +0.0000000000e+00 +8.5354296687e+01 1.0170995204e+02 5.5313274912e+01 0.0000e+00 0.0000e+00
       13  1    3    3    0    0 +8.2858772075e+00 +8.4782859343e+00 -3.2689888860e+00 1.2297291646e+01 0.0000000000e+00 0.0000e+00 -1.0000e+00
      -14  1    3    3    0    0 -8.2858772075e+00 -8.4782859343e+00 +8.8623285573e+01 8.9412660397e+01 0.0000000000e+00 0.0000e+00 1.0000e+00
<mgrwt>
<rscale>  0 0.55313275E+02</rscale>
<asrwt>0</asrwt>
<pdfrwt beam="1">  1        1 0.12581274E-02 0.55313275E+02</pdfrwt>
<pdfrwt beam="2">  1       -2 0.14389557E-01 0.55313275E+02</pdfrwt>
<totfact> 0.27401112E+05</totfact>
</mgrwt>
</event>
<event>
 5      1 +7.5707000e+03 1.00560000e+02 7.54677100e-03 1.27912300e-01
       -2 -1    0    0    0  501 -0.0000000000e+00 +0.0000000000e+00 +1.0029476535e+01 1.0029476535e+01 0.0000000000e+00 0.0000e+00 1.0000e+00
        1 -1    0    0  501    0 +0.0000000000e+00 -0.0000000000e+00 -2.5206485666e+02 2.5206485666e+02 0.0000000000e+00 0.0000e+00 -1.0000e+00
      -24  2    1    2    0    0 +0.0000000000e+00 +0.0000000000e+00 -2.4203538012e+02 2.6209433320e+02 1.0056000329e+02 0.0000e+00 0.0000e+00
       13  1    3    3    0    0 -1.5957316554e+01 +3.8138199886e+01 -1.9560297904e+02 1.9992419477e+02 0.0000000000e+00 0.0000e+00 -1.0000e+00
      -14  1    3    3    0    0 +1.5957316554e+01 -3.8138199886e+01 -4.6432401081e+01 6.2170138429e+01 0.0000000000e+00 0.0000e+00 1.0000e+00
<mgrwt>
<rscale>  0 0.10056000E+03</rscale>
<asrwt>0</asrwt>
<pdfrwt beam="1">  1        1 0.38779206E-01 0.10056000E+03</pdfrwt>
<pdfrwt beam="2">  1       -2 0.15429965E-02 0.10056000E+03</pdfrwt>
<totfact> 0.94527998E+04</totfact>
</mgrwt>
</event>
<event>
 5      1 +7.5707000e+03 8.05487300e+01 7.54677100e-03 1.32750100e-01
       -2 -1    0    0    0  501 -0.0000000000e+00 +0.0000000000e+00 +7.4962417316e+02 7.4962417316e+02 0.0000000000e+00 0.0000e+00 1.0000e+00
        1 -1    0    0  501    0 +0.0000000000e+00 -0.0000000000e+00 -2.1637837943e+00 2.1637837943e+00 0.0000000000e+00 0.0000e+00 -1.0000e+00
      -24  2    1    2    0    0 +0.0000000000e+00 +0.0000000000e+00 +7.4746038936e+02 7.5178795695e+02 8.0548734011e+01 0.0000e+00 0.0000e+00
       11  1    3    3    0    0 -7.3634308228e+00 -3.4069550402e+01 +1.8542108394e+02 1.8866884414e+02 0.0000000000e+00 0.0000e+00 -1.0000e+00
      -12  1    3    3    0    0 +7.3634308228e+00 +3.4069550402e+01 +5.6203930542e+02 5.6311911282e+02 0.0000000000e+00 0.0000e+00 1.0000e+00
<mgrwt>
<rscale>  0 0.80548734E+02</rscale>
<asrwt>0</asrwt>
<pdfrwt beam="1">  1        1 0.33289041E-03 0.80548734E+02</pdfrwt>
<pdfrwt beam="2">  1       -2 0.11532659E+00 0.80548734E+02</pdfrwt>
<totfact> 0.34827737E+04</totfact>
</mgrwt>
</event>
<event>
 5      1 +7.5707000e+03 8.79472800e+01 7.54677100e-03 1.30790000e-01
        1 -1    0    0  501    0 +0.0000000000e+00 +0.0000000000e+00 +4.6821553674e+00 4.6821553674e+00 0.0000000000e+00 0.0000e+00 -1.0000e+00
       -2 -1    0    0    0  501 -0.0000000000e+00 -0.0000000000e+00 -4.1298946214e+02 4.1298946214e+02 0.0000000000e+00 0.0000e+00 1.0000e+00
      -24  2    1    2    0    0 +0.0000000000e+00 +0.0000000000e+00 -4.0830730677e+02 4.1767161751e+02 8.7947275724e+01 0.0000e+00 0.0000e+00
       13  1    3    3    0    0 -1.2908247434e+01 +3.2042299926e+01 -7.4933331881e+01 8.2512641839e+01 0.0000000000e+00 0.0000e+00 -1.0000e+00
      -14  1    3    3    0    0 +1.2908247434e+01 -3.2042299926e+01 -3.3337397489e+02 3.3515897567e+02 0.0000000000e+00 0.0000e+00 1.0000e+00
<mgrwt>
<rscale>  0 0.87947276E+02</rscale>
<asrwt>0</asrwt>
<pdfrwt beam="1">  1        1 0.72033152E-03 0.87947276E+02</pdfrwt>
<pdfrwt beam="2">  1       -2 0.63536847E-01 0.87947276E+02</pdfrwt>
<totfact> 0.45244904E+04</totfact>
</mgrwt>
</event>
<event>
 5      1 +7.5707000e+03 8.15552700e+01 7.54677100e-03 1.32469500e-01
       -2 -1    0    0    0  501 -0.0000000000e+00 +0.0000000000e+00 +5.4118730890e+01 5.4118730890e+01 0.0000000000e+00 0.0000e+00 1.0000e+00
        1 -1    0    0  501    0 +0.0000000000e+00 -0.0000000000e+00 -3.0725320809e+01 3.0725320809e+01 0.0000000000e+00 0.0000e+00 -1.0000e+00
      -24  2    1    2    0    0 +0.0000000000e+00 +0.0000000000e+00 +2.3393410081e+01 8.4844051699e+01 8.1555266375e+01 0.0000e+00 0.0000e+00
       11  1    3    3    0    0 -3.4584270560e+01 +1.4107262926e+01 -5.3255416085e+00 3.7728610243e+01 0.0000000000e+00 0.0000e+00 -1.0000e+00
      -12  1    3    3    0    0 +3.4584270560e+01 -1.4107262926e+01 +2.8718951690e+01 4.7115441456e+01 0.0000000000e+00 0.0000e+00 1.0000e+00
<mgrwt>
<rscale>  0 0.81555266E+02</rscale>
<asrwt>0</asrwt>
<pdfrwt beam="1">  1        1 0.47269724E-02 0.81555266E+02</pdfrwt>
<pdfrwt beam="2">  1       -2 0.83259586E-02 0.81555266E+02</pdfrwt>
<totfact> 0.11491794E+05</totfact>
</mgrwt>
</event>
<event>
 5      1 +7.5707000e+03 8.00418200e+01 7.54677100e-03 1.32893300e-01
        1 -1    0    0  501    0 +0.0000000000e+00 +0.0000000000e+00 +3.1583893982e+01 3.1583893982e+01 0.0000000000e+00 0.0000e+00 -1.0000e+00
       -2 -1    0    0    0  501 -0.0000000000e+00 -0.0000000000e+00 -5.0711709657e+01 5.0711709657e+01 0.0000000000e+00 0.0000e+00 1.0000e+00
      -24  2    1    2    0    0 +0.0000000000e+00 +0.0000000000e+00 -1.9127815675e+01 8.2295603639e+01 8.0041820605e+01 0.0000e+00 0.0000e+00
       13  1    3    3    0    0 -1.5556496518e+01 -5.9890752700e+00 +2.7844636457e+01 3.2453002726e+01 0.0000000000e+00 0.0000e+00 -1.0000e+00
      -14  1    3    3    0    0 +1.5556496518e+01 +5.9890752700e+00 -4.6972452132e+01 4.9842600913e+01 0.0000000000e+00 0.0000e+00 1.0000e+00
<mgrwt>
<rscale>  0 0.80041821E+02</rscale>
<asrwt>0</asrwt>
<pdfrwt beam="1">  1        1 0.48590606E-02 0.80041821E+02</pdfrwt>
<pdfrwt beam="2">  1       -2 0.78018015E-02 0.80041821E+02</pdfrwt>
<totfact> 0.12186206E+05</totfact>
</mgrwt>
</event>
<event>
 5      1 +7.5707000e+03 8.07562000e+01 7.54677100e-03 1.32691900e-01
       -2 -1    0    0    0  501 -0.0000000000e+00 +0.0000000000e+00 +1.8159350167e+02 1.8159350167e+02 0.0000000000e+00 0.0000e+00 1.0000e+00
        1 -1    0    0  501    0 +0.0000000000e+00 -0.0000000000e+00 -8.9782446687e+00 8.9782446687e+00 0.0000000000e+00 0.0000e+00 -1.0000e+00
      -24  2    1    2    0    0 +0.0000000000e+00 +0.0000000000e+00 +1.7261525700e+02 1.9057174634e+02 8.0756198233e+01 0.0000e+00 0.0000e+00
       11  1    3    3    0    0 +2.6348304887e+01 -2.9552522481e+01 +6.7605817017e+01 7.8346226776e+01 0.0000000000e+00 0.0000e+00 -1.0000e+00
      -12  1    3    3    0    0 -2.6348304887e+01 +2.9552522481e+01 +1.0500943999e+02 1.1222551957e+02 0.0000000000e+00 0.0000e+00 1.0000e+00
<mgrwt>
<rscale>  0 0.80756198E+02</rscale>
<asrwt>0</asrwt>
<pdfrwt beam="1">  1        1 0.13812685E-02 0.80756198E+02</pdfrwt>
<pdfrwt beam="2">  1       -2 0.27937459E-01 0.80756198E+02</pdfrwt>
<totfact> 0.86237939E+04</totfact>
</mgrwt>
</event>
<event>
 5      1 +7.5707000e+03 8.04807400e+01 7.54677100e-03 1.32769300e-01
        1 -1    0    0  501    0 +0.0000000000e+00 +0.0000000000e+00 +2.1701030239e+02 2.1701030239e+02 0.0000000000e+00 0.0000e+00 -1.0000e+00
       -2 -1    0    0    0  501 -0.0000000000e+00 -0.0000000000e+00 -7.4618003552e+00 7.4618003552e+00 0.0000000000e+00 0.0000e+00 1.0000e+00
      -24  2    1    2    0    0 +0.0000000000e+00 +0.0000000000e+00 +2.0954850203e+02 2.2447210274e+02 8.0480744317e+01 0.0000e+00 0.0000e+00
       13  1    3    3    0    0 -6.8318229607e-01 +3.6048359818e+01 +1.5461616568e+02 1.5876432115e+02 0.0000000000e+00 0.0000e+00 -1.0000e+00
      -14  1    3    3    0    0 +6.8318229607e-01 -3.6048359818e+01 +5.4932336358e+01 6.5707781589e+01 0.0000000000e+00 0.0000e+00 1.0000e+00
<mgrwt>
<rscale>  0 0.80480744E+02</rscale>
<asrwt>0</asrwt>
<pdfrwt beam="1">  1        1 0.33386196E-01 0.80480744E+02</pdfrwt>
<pdfrwt beam="2">  1       -2 0.11479694E-02 0.80480744E+02</pdfrwt>
<totfact> 0.16673933E+05</totfact>
</mgrwt>
</event>
<event>
 5      1 +7.5707000e+03 8.08006200e+01 7.54677100e-03 1.32679500e-01
       -2 -1    0    0    0  501 -0.0000000000e+00 +0.0000000000e+00 +4.4582581638e+00 4.4582581638e+00 0.0000000000e+00 0.0000e+00 1.0000e+00
        1 -1    0    0  501    0 +0.0000000000e+00 -0.0000000000e+00 -3.6610372178e+02 3.6610372178e+02 0.0000000000e+00 0.0000e+00 -1.0000e+00
      -24  2    1    2    0    0 +0.0000000000e+00 +0.0000000000e+00 -3.6164546361e+02 3.7056197994e+02 8.0800616493e+01 0.0000e+00 0.0000e+00
       13  1    3    3    0    0 +1.3541640497e+00 -4.0323707886e+01 -1.7125790179e+02 1.7594631029e+02 0.0000000000e+00 0.0000e+00 -1.0000e+00
      -14  1    3    3    0    0 -1.3541640497e+00 +4.0323707886e+01 -1.9038756182e+02 1.9461566965e+02 0.0000000000e+00 0.0000e+00 1.0000e+00
<mgrwt>
<rscale>  0 0.80800616E+02</rscale>
<asrwt>0</asrwt>
<pdfrwt beam="1">  1        1 0.56323655E-01 0.80800616E+02</pdfrwt>
<pdfrwt beam="2">  1       -2 0.68588580E-03 0.80800616E+02</pdfrwt>
<totfact> 0.18227098E+05</totfact>
</mgrwt>
</event>
<event>
 5      1 +7.5707000e+03 7.88835700e+01 7.54677100e-03 1.33225000e-01
       -2 -1    0    0    0  501 -0.0000000000e+00 +0.0000000000e+00 +8.2717517407e+01 8.2717517407e+01 0.0000000000e+00 0.0000e+00 1.0000e+00
        1 -1    0    0  501    0 +0.0000000000e+00 -0.0000000000e+00 -1.8806829834e+01 1.8806829834e+01 0.0000000000e+00 0.0000e+00 -1.0000e+00
      -24  2    1    2    0    0 +0.0000000000e+00 +0.0000000000e+00 +6.3910687574e+01 1.0152434724e+02 7.8883566708e+01 0.0000e+00 0.0000e+00
       11  1    3    3    0    0 +1.0171430034e+01 +3.7442239513e+01 +4.1080906285e+01 5.6506815074e+01 0.0000000000e+00 0.0000e+00 -1.0000e+00
      -12  1    3    3    0    0 -1.0171430034e+01 -3.7442239513e+01 +2.2829781289e+01 4.5017532167e+01 0.0000000000e+00 0.0000e+00 1.0000e+00
<mgrwt>
<rscale>  0 0.78883567E+02</rscale>
<asrwt>0</asrwt>
<pdfrwt beam="1">  1        1 0.28933585E-02 0.78883567E+02</pdfrwt>
<pdfrwt beam="2">  1       -2 0.12725772E-01 0.78883567E+02</pdfrwt>
<totfact> 0.11499631E+05</totfact>
</mgrwt>
</event>
<event>
 5      1 +7.5707000e+03 8.16530700e+01 7.54677100e-03 1.32442500e-01
        1 -1    0    0  501    0 +0.0000000000e+00 +0.0000000000e+00 +3.5255204874e+00 3.5255204874e+00 0.0000000000e+00 0.0000e+00 -1.0000e+00
       -2 -1    0    0    0  501 -0.0000000000e+00 -0.0000000000e+00 -4.7278297740e+02 4.7278297740e+02 0.0000000000e+00 0.0000e+00 1.0000e+00
      -24  2    1    2    0    0 +0.0000000000e+00 +0.0000000000e+00 -4.6925745691e+02 4.7630849789e+02 8.1653072763e+01 0.0000e+00 0.0000e+00
       11  1    3    3    0    0 +2.3017837420e+01 +3.2040204288e+01 -1.7333429020e+02 1.7776718395e+02 0.0000000000e+00 0.0000e+00 -1.0000e+00
      -12  1    3    3    0    0 -2.3017837420e+01 -3.2040204288e+01 -2.9592316671e+02 2.9854131394e+02 0.0000000000e+00 0.0000e+00 1.0000e+00
<mgrwt>
<rscale>  0 0.81653073E+02</rscale>
<asrwt>0</asrwt>
<pdfrwt beam="1">  1        1 0.54238777E-03 0.81653073E+02</pdfrwt>
<pdfrwt beam="2">  1       -2 0.72735843E-01 0.81653073E+02</pdfrwt>
<totfact> 0.49851263E+04</totfact>
</mgrwt>
</event>
<event>
 5      1 +7.5707000e+03 7.88783200e+01 7.54677100e-03 1.33226500e-01
        3 -1    0    0  501    0 +0.0000000000e+00 +0.0000000000e+00 +6.9526198085e+01 6.9526198085e+01 0.0000000000e+00 0.0000e+00 -1.0000e+00
       -4 -1    0    0    0  501 -0.0000000000e+00 -0.0000000000e+00 -2.2372106721e+01 2.2372106721e+01 0.0000000000e+00 0.0000e+00 1.0000e+00
      -24  2    1    2    0    0 +0.0000000000e+00 +0.0000000000e+00 +4.7154091364e+01 9.1898304806e+01 7.8878324614e+01 0.0000e+00 0.0000e+00
       11  1    3    3    0    0 -1.9271054706e+01 +2.3807555540e+01 +5.2523069233e+01 6.0801694482e+01 0.0000000000e+00 0.0000e+00 -1.0000e+00
      -12  1    3    3    0    0 +1.9271054706e+01 -2.3807555540e+01 -5.3689778688e+00 3.1096610324e+01 0.0000000000e+00 0.0000e+00 1.0000e+00
<mgrwt>
<rscale>  0 0.78878325E+02</rscale>
<asrwt>0</asrwt>
<pdfrwt beam="1">  1        3 0.10696338E-01 0.78878325E+02</pdfrwt>
<pdfrwt beam="2">  1       -4 0.34418626E-02 0.78878325E+02</pdfrwt>
<totfact> 0.46289886E+04</totfact>
</mgrwt>
</event>
<event>
 5      1 +7.5707000e+03 7.97040300e+01 7.54677100e-03 1.32989300e-01
        1 -1    0    0  501    0 +0.0000000000e+00 +0.0000000000e+00 +1.6385829822e+02 1.6385829822e+02 0.0000000000e+00 0.0000e+00 -1.0000e+00
       -2 -1    0    0    0  501 -0.0000000000e+00 -0.0000000000e+00 -9.6924182820e+00 9.6924182820e+00 0.0000000000e+00 0.0000e+00 1.0000e+00
      -24  2    1    2    0    0 +0.0000000000e+00 +0.0000000000e+00 +1.5416587994e+02 1.7355071650e+02 7.9704031650e+01 0.0000e+00 0.0000e+00
       13  1    3    3    0    0 +2.7661154417e+01 -1.5124037955e+01 +1.3016546936e+02 1.3392880721e+02 0.0000000000e+00 0.0000e+00 -1.0000e+00
      -14  1    3    3    0    0 -2.7661154417e+01 +1.5124037955e+01 +2.4000410576e+01 3.9621909287e+01 0.0000000000e+00 0.0000e+00 1.0000e+00
<mgrwt>
<rscale>  0 0.79704032E+02</rscale>
<asrwt>0</asrwt>
<pdfrwt beam="1">  1        1 0.25208967E-01 0.79704032E+02</pdfrwt>
<pdfrwt beam="2">  1       -2 0.14911414E-02 0.79704032E+02</pdfrwt>
<totfact> 0.16209641E+05</totfact>
</mgrwt>
</event>
<event>
 5      1 +7.5707000e+03 7.79192200e+01 7.54677100e-03 1.33506200e-01
       -2 -1    0    0    0  501 -0.0000000000e+00 +0.0000000000e+00 +4.8155043221e+01 4.8155043221e+01 0.0000000000e+00 0.0000e+00 1.0000e+00
        1 -1    0    0  501    0 +0.0000000000e+00 -0.0000000000e+00 -3.1520090541e+01 3.1520090541e+01 0.0000000000e+00 0.0000e+00 -1.0000e+00
      -24  2    1    2    0    0 +0.0000000000e+00 +0.0000000000e+00 +1.6634952680e+01 7.9675133763e+01 7.7919222849e+01 0.0000e+00 0.0000e+00
       13  1    3    3    0    0 -5.4349681106e+00 -3.8145767958e+01 +1.4210404356e+01 4.1067920369e+01 0.0000000000e+00 0.0000e+00 -1.0000e+00
      -14  1    3    3    0    0 +5.4349681106e+00 +3.8145767958e+01 +2.4245483240e+00 3.8607213394e+01 0.0000000000e+00 0.0000e+00 1.0000e+00
<mgrwt>
<rscale>  0 0.77919223E+02</rscale>
<asrwt>0</asrwt>
<pdfrwt beam="1">  1        1 0.48492447E-02 0.77919223E+02</pdfrwt>
<pdfrwt beam="2">  1       -2 0.74084682E-02 0.77919223E+02</pdfrwt>
<totfact> 0.13153723E+05</totfact>
</mgrwt>
</event>
<event>
 5      1 +7.5707000e+03 7.73356900e+01 7.54677100e-03 1.33678700e-01
        1 -1    0    0  501    0 +0.0000000000e+00 +0.0000000000e+00 +3.7994102824e+01 3.7994102824e+01 0.0000000000e+00 0.0000e+00 -1.0000e+00
       -2 -1    0    0    0  501 -0.0000000000e+00 -0.0000000000e+00 -3.9353533356e+01 3.9353533356e+01 0.0000000000e+00 0.0000e+00 1.0000e+00
      -24  2    1    2    0    0 +0.0000000000e+00 +0.0000000000e+00 -1.3594305327e+00 7.7347636180e+01 7.7335688859e+01 0.0000e+00 0.0000e+00
       13  1    3    3    0    0 +9.8933809520e-01 +1.1075384213e+01 +3.6360574622e+01 3.8022813050e+01 0.0000000000e+00 0.0000e+00 -1.0000e+00
      -14  1    3    3    0    0 -9.8933809520e-01 -1.1075384213e+01 -3.7720005155e+01 3.9324823130e+01 0.0000000000e+00 0.0000e+00 1.0000e+00
<mgrwt>
<rscale>  0 0.77335689E+02</rscale>
<asrwt>0</asrwt>
<pdfrwt beam="1">  1        1 0.58452466E-02 0.77335689E+02</pdfrwt>
<pdfrwt beam="2">  1       -2 0.60543897E-02 0.77335689E+02</pdfrwt>
<totfact> 0.13852040E+05</totfact>
</mgrwt>
</event>
<event>
 5      1 +7.5707000e+03 8.03465100e+01 7.54677100e-03 1.32807100e-01
        1 -1    0    0  501    0 +0.0000000000e+00 +0.0000000000e+00 +3.3715012627e+01 3.3715012627e+01 0.0000000000e+00 0.0000e+00 -1.0000e+00
       -2 -1    0    0    0  501 -0.0000000000e+00 -0.0000000000e+00 -4.7868600159e+01 4.7868600159e+01 0.0000000000e+00 0.0000e+00 1.0000e+00
      -24  2    1    2    0    0 +0.0000000000e+00 +0.0000000000e+00 -1.4153587532e+01 8.1583612786e+01 8.0346511033e+01 0.0000e+00 0.0000e+00
       13  1    3    3    0    0 -2.7364854346e+01 +1.0694343543e+01 +2.0743719175e+01 3.5965346132e+01 0.0000000000e+00 0.0000e+00 -1.0000e+00
      -14  1    3    3    0    0 +2.7364854346e+01 -1.0694343543e+01 -3.4897306707e+01 4.5618266654e+01 0.0000000000e+00 0.0000e+00 1.0000e+00
<mgrwt>
<rscale>  0 0.80346511E+02</rscale>
<asrwt>0</asrwt>
<pdfrwt beam="1">  1        1 0.51869250E-02 0.80346511E+02</pdfrwt>
<pdfrwt beam="2">  1       -2 0.73644000E-02 0.80346511E+02</pdfrwt>
<totfact> 0.12191049E+05</totfact>
</mgrwt>
</event>
<event>
 5      1 +7.5707000e+03 7.14067900e+01 7.54677100e-03 1.35537300e-01
        1 -1    0    0  501    0 +0.0000000000e+00 +0.0000000000e+00 +5.4210074446e+01 5.4210074446e+01 0.0000000000e+00 0.0000e+00 -1.0000e+00
       -2 -1    0    0    0  501 -0.0000000000e+00 -0.0000000000e+00 -2.3514676972e+01 2.3514676972e+01 0.0000000000e+00 0.0000e+00 1.0000e+00
      -24  2    1    2    0    0 +0.0000000000e+00 +0.0000000000e+00 +3.0695397474e+01 7.7724751418e+01 7.1406789291e+01 0.0000e+00 0.0000e+00
       11  1    3    3    0    0 -2.4897548690e+01 -1.3391313634e+01 +3.9083447733e+01 4.8236201118e+01 0.0000000000e+00 0.0000e+00 -1.0000e+00
      -12  1    3    3    0    0 +2.4897548690e+01 +1.3391313634e+01 -8.3880502588e+00 2.9488550299e+01 0.0000000000e+00 0.0000e+00 1.0000e+00
<mgrwt>
<rscale>  0 0.71406789E+02</rscale>
<asrwt>0</asrwt>
<pdfrwt beam="1">  1        1 0.83400114E-02 0.71406789E+02</pdfrwt>
<pdfrwt beam="2">  1       -2 0.36176426E-02 0.71406789E+02</pdfrwt>
<totfact> 0.18195669E+05</totfact>
</mgrwt>
</event>
<event>
 5      1 +7.5707000e+03 8.12297400e+01 7.54677100e-03 1.32559700e-01
        1 -1    0    0  501    0 +0.0000000000e+00 +0.0000000000e+00 +2.7457596240e+02 2.7457596240e+02 0.0000000000e+00 0.0000e+00 -1.0000e+00
       -2 -1    0    0    0  501 -0.0000000000e+00 -0.0000000000e+00 -6.0076921101e+00 6.0076921101e+00 0.0000000000e+00 0.0000e+00 1.0000e+00
      -24  2    1    2    0    0 +0.0000000000e+00 +0.0000000000e+00 +2.6856827029e+02 2.8058365451e+02 8.1229744378e+01 0.0000e+00 0.0000e+00
       13  1    3    3    0    0 +4.0173844183e-01 -3.9744632305e+01 +1.0543162038e+02 1.1267485863e+02 0.0000000000e+00 0.0000e+00 -1.0000e+00
      -14  1    3    3    0    0 -4.0173844183e-01 +3.9744632305e+01 +1.6313664991e+02 1.6790879588e+02 0.0000000000e+00 0.0000e+00 1.0000e+00
<mgrwt>
<rscale>  0 0.81229744E+02</rscale>
<asrwt>0</asrwt>
<pdfrwt beam="1">  1        1 0.42242446E-01 0.81229744E+02</pdfrwt>
<pdfrwt beam="2">  1       -2 0.92426054E-03 0.81229744E+02</pdfrwt>
<totfact> 0.17036042E+05</totfact>
</mgrwt>
</event>
<event>
 5      1 +7.5707000e+03 8.16996100e+01 7.54677100e-03 1.32429600e-01
        1 -1    0    0  501    0 +0.0000000000e+00 +0.0000000000e+00 +1.9483633461e+02 1.9483633461e+02 0.0000000000e+00 0.0000e+00 -1.0000e+00
       -2 -1    0    0    0  501 -0.0000000000e+00 -0.0000000000e+00 -8.5646575292e+00 8.5646575292e+00 0.0000000000e+00 0.0000e+00 1.0000e+00
      -24  2    1    2    0    0 +0.0000000000e+00 +0.0000000000e+00 +1.8627167708e+02 2.0340099214e+02 8.1699607836e+01 0.0000e+00 0.0000e+00
       13  1    3    3    0    0 -3.1967747269e+01 -1.0862128818e+01 +1.5038539870e+02 1.5412881253e+02 0.0000000000e+00 0.0000e+00 -1.0000e+00
      -14  1    3    3    0    0 +3.1967747269e+01 +1.0862128818e+01 +3.5886278376e+01 4.9272179610e+01 0.0000000000e+00 0.0000e+00 1.0000e+00
<mgrwt>
<rscale>  0 0.81699608E+02</rscale>
<asrwt>0</asrwt>
<pdfrwt beam="1">  1        1 0.29974817E-01 0.81699608E+02</pdfrwt>
<pdfrwt beam="2">  1       -2 0.13176398E-02 0.81699608E+02</pdfrwt>
<totfact> 0.15687530E+05</totfact>
</mgrwt>
</event>
<event>
 5      1 +7.5707000e+03 8.18192200e+01 7.54677100e-03 1.32396700e-01
       -2 -1    0    0    0  501 -0.0000000000e+00 +0.0000000000e+00 +3.2280813398e+01 3.2280813398e+01 0.0000000000e+00 0.0000e+00 1.0000e+00
        1 -1    0    0  501    0 +0.0000000000e+00 -0.0000000000e+00 -5.1844920055e+01 5.1844920055e+01 0.0000000000e+00 0.0000e+00 -1.0000e+00
      -24  2    1    2    0    0 +0.0000000000e+00 +0.0000000000e+00 -1.9564106657e+01 8.4125733453e+01 8.1819219990e+01 0.0000e+00 0.0000e+00
       11  1    3    3    0    0 +2.4576175714e+01 +2.9807345994e+01 -2.3619902889e+01 4.5280968413e+01 0.0000000000e+00 0.0000e+00 -1.0000e+00
      -12  1    3    3    0    0 -2.4576175714e+01 -2.9807345994e+01 +4.0557962320e+00 3.8844765040e+01 0.0000000000e+00 0.0000e+00 1.0000e+00
<mgrwt>
<rscale>  0 0.81819220E+02</rscale>
<asrwt>0</asrwt>
<pdfrwt beam="1">  1        1 0.79761415E-02 0.81819220E+02</pdfrwt>
<pdfrwt beam="2">  1       -2 0.49662790E-02 0.81819220E+02</pdfrwt>
<totfact> 0.12429905E+05</totfact>
</mgrwt>
</event>
<event>
 5      1 +7.5707000e+03 8.01186000e+01 7.54677100e-03 1.32871500e-01
        3 -1    0    0  501    0 +0.0000000000e+00 +0.0000000000e+00 +1.3757690127e+01 1.3757690127e+01 0.0000000000e+00 0.0000e+00 -1.0000e+00
       -4 -1    0    0    0  501 -0.0000000000e+00 -0.0000000000e+00 -1.1664368432e+02 1.1664368432e+02 0.0000000000e+00 0.0000e+00 1.0000e+00
      -24  2    1    2    0    0 +0.0000000000e+00 +0.0000000000e+00 -1.0288599420e+02 1.3040137445e+02 8.0118603686e+01 0.0000e+00 0.0000e+00
       13  1    3    3    0    0 -1.2960466551e+01 -2.3790778895e+01 -3.4142533638e+00 2.7306262645e+01 0.0000000000e+00 0.0000e+00 -1.0000e+00
      -14  1    3    3    0    0 +1.2960466551e+01 +2.3790778895e+01 -9.9471740833e+01 1.0309511180e+02 0.0000000000e+00 0.0000e+00 1.0000e+00
<mgrwt>
<rscale>  0 0.80118604E+02</rscale>
<asrwt>0</asrwt>
<pdfrwt beam="1">  1        3 0.21165677E-02 0.80118604E+02</pdfrwt>
<pdfrwt beam="2">  1       -4 0.17945182E-01 0.80118604E+02</pdfrwt>
<totfact> 0.38892111E+04</totfact>
</mgrwt>
</event>
<event>
 5      1 +7.5707000e+03 7.99043400e+01 7.54677100e-03 1.32932300e-01
        1 -1    0    0  501    0 +0.0000000000e+00 +0.0000000000e+00 +6.3514649076e+01 6.3514649076e+01 0.0000000000e+00 0.0000e+00 -1.0000e+00
       -2 -1    0    0    0  501 -0.0000000000e+00 -0.0000000000e+00 -2.5130828136e+01 2.5130828136e+01 0.0000000000e+00 0.0000e+00 1.0000e+00
      -24  2    1    2    0    0 +0.0000000000e+00 +0.0000000000e+00 +3.8383820940e+01 8.8645477212e+01 7.9904336054e+01 0.0000e+00 0.0000e+00
       11  1    3    3    0    0 -1.3870116548e+01 -1.2908936779e+01 +5.8212900446e+01 6.1218972224e+01 0.0000000000e+00 0.0000e+00 -1.0000e+00
      -12  1    3    3    0    0 +1.3870116548e+01 +1.2908936779e+01 -1.9829079506e+01 2.7426504988e+01 0.0000000000e+00 0.0000e+00 1.0000e+00
<mgrwt>
<rscale>  0 0.79904336E+02</rscale>
<asrwt>0</asrwt>
<pdfrwt beam="1">  1        1 0.97714844E-02 0.79904336E+02</pdfrwt>
<pdfrwt beam="2">  1       -2 0.38662813E-02 0.79904336E+02</pdfrwt>
<totfact> 0.13704794E+05</totfact>
</mgrwt>
</event>
<event>
 5      1 +7.5707000e+03 7.81894000e+01 7.54677100e-03 1.33427000e-01
       -4 -1    0    0    0  501 -0.0000000000e+00 +0.0000000000e+00 +3.8394204190e+01 3.8394204190e+01 0.0000000000e+00 0.0000e+00 1.0000e+00
        3 -1    0    0  501    0 +0.0000000000e+00 -0.0000000000e+00 -3.9807972967e+01 3.9807972967e+01 0.0000000000e+00 0.0000e+00 -1.0000e+00
      -24  2    1    2    0    0 +0.0000000000e+00 +0.0000000000e+00 -1.4137687767e+00 7.8202177157e+01 7.8189396787e+01 0.0000e+00 0.0000e+00
       13  1    3    3    0    0 -5.1462235269e+00 +1.1594242453e+01 -3.7692455173e+01 3.9769727829e+01 0.0000000000e+00 0.0000e+00 -1.0000e+00
      -14  1    3    3    0    0 +5.1462235269e+00 -1.1594242453e+01 +3.6278686396e+01 3.8432449327e+01 0.0000000000e+00 0.0000e+00 1.0000e+00
<mgrwt>
<rscale>  0 0.78189397E+02</rscale>
<asrwt>0</asrwt>
<pdfrwt beam="1">  1        3 0.61243035E-02 0.78189397E+02</pdfrwt>
<pdfrwt beam="2">  1       -4 0.59068007E-02 0.78189397E+02</pdfrwt>
<totfact> 0.48204453E+04</totfact>
</mgrwt>
</event>
<event>
 5      1 +7.5707000e+03 8.04131800e+01 7.54677100e-03 1.32788300e-01
        1 -1    0    0  501    0 +0.0000000000e+00 +0.0000000000e+00 +2.0667434057e+02 2.0667434057e+02 0.0000000000e+00 0.0000e+00 -1.0000e+00
       -2 -1    0    0    0  501 -0.0000000000e+00 -0.0000000000e+00 -7.8218210217e+00 7.8218210217e+00 0.0000000000e+00 0.0000e+00 1.0000e+00
      -24  2    1    2    0    0 +0.0000000000e+00 +0.0000000000e+00 +1.9885251955e+02 2.1449616159e+02 8.0413175581e+01 0.0000e+00 0.0000e+00
       13  1    3    3    0    0 +1.1547009577e+01 -3.8233179499e+01 +1.1178316656e+02 1.1870377320e+02 0.0000000000e+00 0.0000e+00 -1.0000e+00
      -14  1    3    3    0    0 -1.1547009577e+01 +3.8233179499e+01 +8.7069352990e+01 9.5792388397e+01 0.0000000000e+00 0.0000e+00 1.0000e+00
<mgrwt>
<rscale>  0 0.80413176E+02</rscale>
<asrwt>0</asrwt>
<pdfrwt beam="1">  1        1 0.31796048E-01 0.80413176E+02</pdfrwt>
<pdfrwt beam="2">  1       -2 0.12033572E-02 0.80413176E+02</pdfrwt>
<totfact> 0.16552762E+05</totfact>
</mgrwt>
</event>
<event>
 5      1 +7.5707000e+03 8.00905200e+01 7.54677100e-03 1.32879500e-01
        1 -1    0    0  501    0 +0.0000000000e+00 +0.0000000000e+00 +1.5170392166e+01 1.5170392166e+01 0.0000000000e+00 0.0000e+00 -1.0000e+00
       -2 -1    0    0    0  501 -0.0000000000e+00 -0.0000000000e+00 -1.0570740975e+02 1.0570740975e+02 0.0000000000e+00 0.0000e+00 1.0000e+00
      -24  2    1    2    0    0 +0.0000000000e+00 +0.0000000000e+00 -9.0537017589e+01 1.2087780192e+02 8.0090520309e+01 0.0000e+00 0.0000e+00
       11  1    3    3    0    0 +2.5732797366e+01 +3.8551342244e+00 +6.7327180102e-01 2.6028680625e+01 0.0000000000e+00 0.0000e+00 -1.0000e+00
      -12  1    3    3    0    0 -2.5732797366e+01 -3.8551342244e+00 -9.1210289390e+01 9.4849121296e+01 0.0000000000e+00 0.0000e+00 1.0000e+00
<mgrwt>
<rscale>  0 0.80090520E+02</rscale>
<asrwt>0</asrwt>
<pdfrwt beam="1">  1        1 0.23339066E-02 0.80090520E+02</pdfrwt>
<pdfrwt beam="2">  1       -2 0.16262678E-01 0.80090520E+02</pdfrwt>
<totfact> 0.10434627E+05</totfact>
</mgrwt>
</event>
<event>
 5      1 +7.5707000e+03 8.20880000e+01 7.54677100e-03 1.32322800e-01
       -4 -1    0    0    0  501 -0.0000000000e+00 +0.0000000000e+00 +1.1390810164e+02 1.1390810164e+02 0.0000000000e+00 0.0000e+00 1.0000e+00
        3 -1    0    0  501    0 +0.0000000000e+00 -0.0000000000e+00 -1.4789200828e+01 1.4789200828e+01 0.0000000000e+00 0.0000e+00 -1.0000e+00
      -24  2    1    2    0    0 +0.0000000000e+00 +0.0000000000e+00 +9.9118900811e+01 1.2869730247e+02 8.2087996470e+01 0.0000e+00 0.0000e+00
       11  1    3    3    0    0 +2.1126390890e+01 -3.3671079644e+01 +6.5589649568e+01 7.6694642100e+01 0.0000000000e+00 0.0000e+00 -1.0000e+00
      -12  1    3    3    0    0 -2.1126390890e+01 +3.3671079644e+01 +3.3529251242e+01 5.2002660367e+01 0.0000000000e+00 0.0000e+00 1.0000e+00
<mgrwt>
<rscale>  0 0.82087996E+02</rscale>
<asrwt>0</asrwt>
<pdfrwt beam="1">  1        3 0.22752617E-02 0.82087996E+02</pdfrwt>
<pdfrwt beam="2">  1       -4 0.17524323E-01 0.82087996E+02</pdfrwt>
<totfact> 0.36632092E+04</totfact>
</mgrwt>
</event>
<event>
 5      1 +7.5707000e+03 7.94924000e+01 7.54677100e-03 1.33049800e-01
       -2 -1    0    0    0  501 -0.0000000000e+00 +0.0000000000e+00 +1.6554389875e+01 1.6554389875e+01 0.0000000000e+00 0.0000e+00 1.0000e+00
        1 -1    0    0  501    0 +0.0000000000e+00 -0.0000000000e+00 -9.5428491709e+01 9.5428491709e+01 0.0000000000e+00 0.0000e+00 -1.0000e+00
      -24  2    1    2    0    0 +0.0000000000e+00 +0.0000000000e+00 -7.8874101834e+01 1.1198288158e+02 7.9492401070e+01 0.0000e+00 0.0000e+00
       13  1    3    3    0    0 -1.2431374695e+01 +9.1193972027e+00 -9.1044413189e+01 9.2340606751e+01 0.0000000000e+00 0.0000e+00 -1.0000e+00
      -14  1    3    3    0    0 +1.2431374695e+01 -9.1193972027e+00 +1.2170311356e+01 1.9642274834e+01 0.0000000000e+00 0.0000e+00 1.0000e+00
<mgrwt>
<rscale>  0 0.79492401E+02</rscale>
<asrwt>0</asrwt>
<pdfrwt beam="1">  1        1 0.14681306E-01 0.79492401E+02</pdfrwt>
<pdfrwt beam="2">  1       -2 0.25468292E-02 0.79492401E+02</pdfrwt>
<totfact> 0.14837796E+05</totfact>
</mgrwt>
</event>
<event>
 5      1 +7.5707000e+03 8.02102500e+01 7.54677100e-03 1.32845600e-01
        1 -1    0    0  501    0 +0.0000000000e+00 +0.0000000000e+00 +7.0497668563e+01 7.0497668563e+01 0.0000000000e+00 0.0000e+00 -1.0000e+00
       -2 -1    0    0    0  501 -0.0000000000e+00 -0.0000000000e+00 -2.2815235944e+01 2.2815235944e+01 0.0000000000e+00 0.0000e+00 1.0000e+00
      -24  2    1    2    0    0 +0.0000000000e+00 +0.0000000000e+00 +4.7682432619e+01 9.3312904508e+01 8.0210247271e+01 0.0000e+00 0.0000e+00
       11  1    3    3    0    0 +1.2287904519e+01 -1.5455230789e+01 +6.4451503188e+01 6.7408107965e+01 0.0000000000e+00 0.0000e+00 -1.0000e+00
      -12  1    3    3    0    0 -1.2287904519e+01 +1.5455230789e+01 -1.6769070568e+01 2.5904796543e+01 0.0000000000e+00 0.0000e+00 1.0000e+00
<mgrwt>
<rscale>  0 0.80210247E+02</rscale>
<asrwt>0</asrwt>
<pdfrwt beam="1">  1        1 0.10845795E-01 0.80210247E+02</pdfrwt>
<pdfrwt beam="2">  1       -2 0.35100363E-02 0.80210247E+02</pdfrwt>
<totfact> 0.13786772E+05</totfact>
</mgrwt>
</event>
<event>
 5      1 +7.5707000e+03 8.02347100e+01 7.54677100e-03 1.32838700e-01
       -2 -1    0    0    0  501 -0.0000000000e+00 +0.0000000000e+00 +5.8627110482e+00 5.8627110482e+00 0.0000000000e+00 0.0000e+00 1.0000e+00
        1 -1    0    0  501    0 +0.0000000000e+00 -0.0000000000e+00 -2.7451502296e+02 2.7451502296e+02 0.0000000000e+00 0.0000e+00 -1.0000e+00
      -24  2    1    2    0    0 +0.0000000000e+00 +0.0000000000e+00 -2.6865231192e+02 2.8037773401e+02 8.0234712140e+01 0.0000e+00 0.0000e+00
       13  1    3    3    0    0 +2.1732876943e+01 +2.8019765017e+01 -1.9988607650e+02 2.0300706576e+02 0.0000000000e+00 0.0000e+00 -1.0000e+00
      -14  1    3    3    0    0 -2.1732876943e+01 -2.8019765017e+01 -6.8766235417e+01 7.7370668248e+01 0.0000000000e+00 0.0000e+00 1.0000e+00
<mgrwt>
<rscale>  0 0.80234712E+02</rscale>
<asrwt>0</asrwt>
<pdfrwt beam="1">  1        1 0.42233066E-01 0.80234712E+02</pdfrwt>
<pdfrwt beam="2">  1       -2 0.90195585E-03 0.80234712E+02</pdfrwt>
<totfact> 0.17599260E+05</totfact>
</mgrwt>
</event>
<event>
 5      1 +7.5707000e+03 7.39206900e+01 7.54677100e-03 1.34724600e-01
        1 -1    0    0  501    0 +0.0000000000e+00 +0.0000000000e+00 +3.5766890583e+02 3.5766890583e+02 0.0000000000e+00 0.0000e+00 -1.0000e+00
       -2 -1    0    0    0  501 -0.0000000000e+00 -0.0000000000e+00 -3.8193623591e+00 3.8193623591e+00 0.0000000000e+00 0.0000e+00 1.0000e+00
      -24  2    1    2    0    0 +0.0000000000e+00 +0.0000000000e+00 +3.5384954347e+02 3.6148826819e+02 7.3920691446e+01 0.0000e+00 0.0000e+00
       13  1    3    3    0    0 +1.1490449361e+01 +3.3627084632e+01 +1.2723286712e+02 1.3210228508e+02 0.0000000000e+00 0.0000e+00 -1.0000e+00
      -14  1    3    3    0    0 -1.1490449361e+01 -3.3627084632e+01 +2.2661667636e+02 2.2938598312e+02 0.0000000000e+00 0.0000e+00 1.0000e+00
<mgrwt>
<rscale>  0 0.73920691E+02</rscale>
<asrwt>0</asrwt>
<pdfrwt beam="1">  1        1 0.55025959E-01 0.73920691E+02</pdfrwt>
<pdfrwt beam="2">  1       -2 0.58759449E-03 0.73920691E+02</pdfrwt>
<totfact> 0.22919164E+05</totfact>
</mgrwt>
</event>
<event>
 5      1 +7.5707000e+03 8.09404400e+01 7.54677100e-03 1.32640400e-01
       -2 -1    0    0    0  501 -0.0000000000e+00 +0.0000000000e+00 +4.1727628719e+02 4.1727628719e+02 0.0000000000e+00 0.0000e+00 1.0000e+00
        1 -1    0    0  501    0 +0.0000000000e+00 -0.0000000000e+00 -3.9250706026e+00 3.9250706026e+00 0.0000000000e+00 0.0000e+00 -1.0000e+00
      -24  2    1    2    0    0 +0.0000000000e+00 +0.0000000000e+00 +4.1335121659e+02 4.2120135780e+02 8.0940444476e+01 0.0000e+00 0.0000e+00
       11  1    3    3    0    0 +3.1842608630e+01 +2.2064401405e+01 +1.4575521838e+02 1.5081569288e+02 0.0000000000e+00 0.0000e+00 -1.0000e+00
      -12  1    3    3    0    0 -3.1842608630e+01 -2.2064401405e+01 +2.6759599821e+02 2.7038566492e+02 0.0000000000e+00 0.0000e+00 1.0000e+00
<mgrwt>
<rscale>  0 0.80940444E+02</rscale>
<asrwt>0</asrwt>
<pdfrwt beam="1">  1        1 0.60385735E-03 0.80940444E+02</pdfrwt>
<pdfrwt beam="2">  1       -2 0.64196317E-01 0.80940444E+02</pdfrwt>
<totfact> 0.55727956E+04</totfact>
</mgrwt>
</event>
<event>
 5      1 +7.5707000e+03 8.06655800e+01 7.54677100e-03 1.32717300e-01
        1 -1    0    0  501    0 +0.0000000000e+00 +0.0000000000e+00 +6.6181140343e+01 6.6181140343e+01 0.0000000000e+00 0.0000e+00 -1.0000e+00
       -2 -1    0    0    0  501 -0.0000000000e+00 -0.0000000000e+00 -2.4580025049e+01 2.4580025049e+01 0.0000000000e+00 0.0000e+00 1.0000e+00
      -24  2    1    2    0    0 +0.0000000000e+00 +0.0000000000e+00 +4.1601115294e+01 9.0761165392e+01 8.0665583427e+01 0.0000e+00 0.0000e+00
       11  1    3    3    0    0 -9.4726932311e+00 +1.7647889856e+01 +6.0189837213e+01 6.3434978026e+01 0.0000000000e+00 0.0000e+00 -1.0000e+00
      -12  1    3    3    0    0 +9.4726932311e+00 -1.7647889856e+01 -1.8588721918e+01 2.7326187366e+01 0.0000000000e+00 0.0000e+00 1.0000e+00
<mgrwt>
<rscale>  0 0.80665583E+02</rscale>
<asrwt>0</asrwt>
<pdfrwt beam="1">  1        1 0.10181714E-01 0.80665583E+02</pdfrwt>
<pdfrwt beam="2">  1       -2 0.37815423E-02 0.80665583E+02</pdfrwt>
<totfact> 0.13439077E+05</totfact>
</mgrwt>
</event>
<event>
 5      1 +7.5707000e+03 8.08824900e+01 7.54677100e-03 1.32656600e-01
        1 -1    0    0  501    0 +0.0000000000e+00 +0.0000000000e+00 +4.1239099321e+01 4.1239099321e+01 0.0000000000e+00 0.0000e+00 -1.0000e+00
       -2 -1    0    0    0  501 -0.0000000000e+00 -0.0000000000e+00 -3.9658825066e+01 3.9658825066e+01 0.0000000000e+00 0.0000e+00 1.0000e+00
      -24  2    1    2    0    0 +0.0000000000e+00 +0.0000000000e+00 +1.5802742545e+00 8.0897924387e+01 8.0882488237e+01 0.0000e+00 0.0000e+00
       13  1    3    3    0    0 -8.1697204130e-01 +3.7653383431e+01 +1.5525548658e+01 4.0736806309e+01 0.0000000000e+00 0.0000e+00 -1.0000e+00
      -14  1    3    3    0    0 +8.1697204130e-01 -3.7653383431e+01 -1.3945274404e+01 4.0161118078e+01 0.0000000000e+00 0.0000e+00 1.0000e+00
<mgrwt>
<rscale>  0 0.80882488E+02</rscale>
<asrwt>0</asrwt>
<pdfrwt beam="1">  1        1 0.63444768E-02 0.80882488E+02</pdfrwt>
<pdfrwt beam="2">  1       -2 0.61013577E-02 0.80882488E+02</pdfrwt>
<totfact> 0.12372369E+05</totfact>
</mgrwt>
</event>
<event>
 5      1 +7.5707000e+03 8.15638400e+01 7.54677100e-03 1.32467100e-01
        3 -1    0    0  501    0 +0.0000000000e+00 +0.0000000000e+00 +5.1412572296e+01 5.1412572296e+01 0.0000000000e+00 0.0000e+00 -1.0000e+00
       -4 -1    0    0    0  501 -0.0000000000e+00 -0.0000000000e+00 -3.2349385412e+01 3.2349385412e+01 0.0000000000e+00 0.0000e+00 1.0000e+00
      -24  2    1    2    0    0 +0.0000000000e+00 +0.0000000000e+00 +1.9063186884e+01 8.3761957708e+01 8.1563842877e+01 0.0000e+00 0.0000e+00
       11  1    3    3    0    0 -1.0146045878e+01 +2.7955184363e+00 +4.9994033439e+01 5.1089730375e+01 0.0000000000e+00 0.0000e+00 -1.0000e+00
      -12  1    3    3    0    0 +1.0146045878e+01 -2.7955184363e+00 -3.0930846555e+01 3.2672227333e+01 0.0000000000e+00 0.0000e+00 1.0000e+00
<mgrwt>
<rscale>  0 0.81563843E+02</rscale>
<asrwt>0</asrwt>
<pdfrwt beam="1">  1        3 0.79096265E-02 0.81563843E+02</pdfrwt>
<pdfrwt beam="2">  1       -4 0.49768285E-02 0.81563843E+02</pdfrwt>
<totfact> 0.42739938E+04</totfact>
</mgrwt>
</event>
<event>
 4      1 +7.5707000e+03 4.18406500e+01 7.54677100e-03 1.49508700e-01
        1 -1    0    0  501    0 +0.0000000000e+00 +0.0000000000e+00 +5.5365668997e+01 5.5365668997e+01 0.0000000000e+00 0.0000e+00 -1.0000e+00
       -2 -1    0    0    0  501 -0.0000000000e+00 -0.0000000000e+00 -7.9048979535e+00 7.9048979535e+00 0.0000000000e+00 0.0000e+00 1.0000e+00
       11  1    1    2    0    0 +1.7503286531e+01 -1.0976426318e+01 +2.8702901758e+01 3.5365287266e+01 0.0000000000e+00 0.0000e+00 -1.0000e+00
      -12  1    1    2    0    0 -1.7503286531e+01 +1.0976426318e+01 +1.8757869285e+01 2.7905279684e+01 0.0000000000e+00 0.0000e+00 1.0000e+00
<mgrwt>
<rscale>  0 0.41840648E+02</rscale>
<asrwt>0</asrwt>
<pdfrwt beam="1">  1        1 0.85177950E-02 0.41840648E+02</pdfrwt>
<pdfrwt beam="2">  1       -2 0.12161382E-02 0.41840648E+02</pdfrwt>
<totfact> 0.73338705E+05</totfact>
</mgrwt>
</event>
<event>
 5      1 +7.5707000e+03 9.38950100e+01 7.54677100e-03 1.29368400e-01
        1 -1    0    0  501    0 +0.0000000000e+00 +0.0000000000e+00 +3.8215686886e+01 3.8215686886e+01 0.0000000000e+00 0.0000e+00 -1.0000e+00
       -2 -1    0    0    0  501 -0.0000000000e+00 -0.0000000000e+00 -5.7674433217e+01 5.7674433217e+01 0.0000000000e+00 0.0000e+00 1.0000e+00
      -24  2    1    2    0    0 +0.0000000000e+00 +0.0000000000e+00 -1.9458746331e+01 9.5890120103e+01 9.3895006921e+01 0.0000e+00 0.0000e+00
       13  1    3    3    0    0 +3.2806746492e+01 -1.3436647231e+01 +2.1701889797e+01 4.1566791131e+01 0.0000000000e+00 0.0000e+00 -1.0000e+00
      -14  1    3    3    0    0 -3.2806746492e+01 +1.3436647231e+01 -4.1160636128e+01 5.4323328972e+01 0.0000000000e+00 0.0000e+00 1.0000e+00
<mgrwt>
<rscale>  0 0.93895007E+02</rscale>
<asrwt>0</asrwt>
<pdfrwt beam="1">  1        1 0.58793365E-02 0.93895007E+02</pdfrwt>
<pdfrwt beam="2">  1       -2 0.88729896E-02 0.93895007E+02</pdfrwt>
<totfact> 0.79548129E+04</totfact>
</mgrwt>
</event>
<event>
 5      1 +7.5707000e+03 7.99387800e+01 7.54677100e-03 1.32922500e-01
        3 -1    0    0  501    0 +0.0000000000e+00 +0.0000000000e+00 +7.2642302921e+00 7.2642302921e+00 0.0000000000e+00 0.0000e+00 -1.0000e+00
       -4 -1    0    0    0  501 -0.0000000000e+00 -0.0000000000e+00 -2.1992036188e+02 2.1992036188e+02 0.0000000000e+00 0.0000e+00 1.0000e+00
      -24  2    1    2    0    0 +0.0000000000e+00 +0.0000000000e+00 -2.1265613158e+02 2.2718459217e+02 7.9938780441e+01 0.0000e+00 0.0000e+00
       13  1    3    3    0    0 +3.8146682746e+01 -1.0676709992e+01 -9.1185176518e+01 9.9417794973e+01 0.0000000000e+00 0.0000e+00 -1.0000e+00
      -14  1    3    3    0    0 -3.8146682746e+01 +1.0676709992e+01 -1.2147095507e+02 1.2776679720e+02 0.0000000000e+00 0.0000e+00 1.0000e+00
<mgrwt>
<rscale>  0 0.79938780E+02</rscale>
<asrwt>0</asrwt>
<pdfrwt beam="1">  1        3 0.11175739E-02 0.79938780E+02</pdfrwt>
<pdfrwt beam="2">  1       -4 0.33833901E-01 0.79938780E+02</pdfrwt>
<totfact> 0.31732974E+04</totfact>
</mgrwt>
</event>
<event>
 5      1 +7.5707000e+03 8.03361600e+01 7.54677100e-03 1.32810000e-01
       -2 -1    0    0    0  501 -0.0000000000e+00 +0.0000000000e+00 +3.7290516827e+01 3.7290516827e+01 0.0000000000e+00 0.0000e+00 1.0000e+00
        1 -1    0    0  501    0 +0.0000000000e+00 -0.0000000000e+00 -4.3267695019e+01 4.3267695019e+01 0.0000000000e+00 0.0000e+00 -1.0000e+00
      -24  2    1    2    0    0 +0.0000000000e+00 +0.0000000000e+00 -5.9771781924e+00 8.0558211846e+01 8.0336161451e+01 0.0000e+00 0.0000e+00
       13  1    3    3    0    0 +1.0449914992e+01 -1.7718641598e+01 -3.7585019057e+01 4.2846057472e+01 0.0000000000e+00 0.0000e+00 -1.0000e+00
      -14  1    3    3    0    0 -1.0449914992e+01 +1.7718641598e+01 +3.1607840864e+01 3.7712154374e+01 0.0000000000e+00 0.0000e+00 1.0000e+00
<mgrwt>
<rscale>  0 0.80336161E+02</rscale>
<asrwt>0</asrwt>
<pdfrwt beam="1">  1        1 0.66565685E-02 0.80336161E+02</pdfrwt>
<pdfrwt beam="2">  1       -2 0.57370026E-02 0.80336161E+02</pdfrwt>
<totfact> 0.12708786E+05</totfact>
</mgrwt>
</event>
<event>
 5      1 +7.5707000e+03 8.05218400e+01 7.54677100e-03 1.32757700e-01
        1 -1    0    0  501    0 +0.0000000000e+00 +0.0000000000e+00 +1.2743978407e+01 1.2743978407e+01 0.0000000000e+00 0.0000e+00 -1.0000e+00
       -2 -1    0    0    0  501 -0.0000000000e+00 -0.0000000000e+00 -1.2719274931e+02 1.2719274931e+02 0.0000000000e+00 0.0000e+00 1.0000e+00
      -24  2    1    2    0    0 +0.0000000000e+00 +0.0000000000e+00 -1.1444877091e+02 1.3993672772e+02 8.0521839293e+01 0.0000e+00 0.0000e+00
       11  1    3    3    0    0 +2.2875962920e+01 -2.6259175760e+01 -2.2117301430e+01 4.1255654323e+01 0.0000000000e+00 0.0000e+00 -1.0000e+00
      -12  1    3    3    0    0 -2.2875962920e+01 +2.6259175760e+01 -9.2331469477e+01 9.8681073397e+01 0.0000000000e+00 0.0000e+00 1.0000e+00
<mgrwt>
<rscale>  0 0.80521839E+02</rscale>
<asrwt>0</asrwt>
<pdfrwt beam="1">  1        1 0.19606120E-02 0.80521839E+02</pdfrwt>
<pdfrwt beam="2">  1       -2 0.19568115E-01 0.80521839E+02</pdfrwt>
<totfact> 0.97824175E+04</totfact>
</mgrwt>
</event>
<event>
 5      1 +7.5707000e+03 7.98575900e+01 7.54677100e-03 1.32945600e-01
        1 -1    0    0  501    0 +0.0000000000e+00 +0.0000000000e+00 +2.5172816189e+02 2.5172816189e+02 0.0000000000e+00 0.0000e+00 -1.0000e+00
       -2 -1    0    0    0  501 -0.0000000000e+00 -0.0000000000e+00 -6.3334538120e+00 6.3334538120e+00 0.0000000000e+00 0.0000e+00 1.0000e+00
      -24  2    1    2    0    0 +0.0000000000e+00 +0.0000000000e+00 +2.4539470808e+02 2.5806161570e+02 7.9857590409e+01 0.0000e+00 0.0000e+00
       13  1    3    3    0    0 +3.4187394342e+01 +2.0625207205e+01 +1.2152514227e+02 1.2791613389e+02 0.0000000000e+00 0.0000e+00 -1.0000e+00
      -14  1    3    3    0    0 -3.4187394342e+01 -2.0625207205e+01 +1.2386956580e+02 1.3014548181e+02 0.0000000000e+00 0.0000e+00 1.0000e+00
<mgrwt>
<rscale>  0 0.79857590E+02</rscale>
<asrwt>0</asrwt>
<pdfrwt beam="1">  1        1 0.38727402E-01 0.79857590E+02</pdfrwt>
<pdfrwt beam="2">  1       -2 0.97437770E-03 0.79857590E+02</pdfrwt>
<totfact> 0.17520976E+05</totfact>
</mgrwt>
</event>
<event>
 5      1 +7.5707000e+03 8.53605000e+01 7.54677100e-03 1.31449200e-01
        1 -1    0    0  501    0 +0.0000000000e+00 +0.0000000000e+00 +2.4009799104e+01 2.4009799104e+01 0.0000000000e+00 0.0000e+00 -1.0000e+00
       -2 -1    0    0    0  501 -0.0000000000e+00 -0.0000000000e+00 -7.5869178600e+01 7.5869178600e+01 0.0000000000e+00 0.0000e+00 1.0000e+00
      -24  2    1    2    0    0 +0.0000000000e+00 +0.0000000000e+00 -5.1859379496e+01 9.9878977703e+01 8.5360499913e+01 0.0000e+00 0.0000e+00
       11  1    3    3    0    0 -2.1119046920e+01 +2.0872680359e+01 +9.9429033024e+00 3.1313643261e+01 0.0000000000e+00 0.0000e+00 -1.0000e+00
      -12  1    3    3    0    0 +2.1119046920e+01 -2.0872680359e+01 -6.1802282798e+01 6.8565334443e+01 0.0000000000e+00 0.0000e+00 1.0000e+00
<mgrwt>
<rscale>  0 0.85360500E+02</rscale>
<asrwt>0</asrwt>
<pdfrwt beam="1">  1        1 0.36938152E-02 0.85360500E+02</pdfrwt>
<pdfrwt beam="2">  1       -2 0.11672181E-01 0.85360500E+02</pdfrwt>
<totfact> 0.95816539E+04</totfact>
</mgrwt>
</event>
<event>
 5      1 +7.5707000e+03 8.17732800e+01 7.54677100e-03 1.32409300e-01
       -2 -1    0    0    0  501 -0.0000000000e+00 +0.0000000000e+00 +6.6445172835e+01 6.6445172835e+01 0.0000000000e+00 0.0000e+00 1.0000e+00
        1 -1    0    0  501    0 +0.0000000000e+00 -0.0000000000e+00 -2.5159347720e+01 2.5159347720e+01 0.0000000000e+00 0.0000e+00 -1.0000e+00
      -24  2    1    2    0    0 +0.0000000000e+00 +0.0000000000e+00 +4.1285825115e+01 9.1604520554e+01 8.1773276996e+01 0.0000e+00 0.0000e+00
       11  1    3    3    0    0 -7.9949804131e+00 -2.4191103474e+01 -1.5179584176e+01 2.9657190947e+01 0.0000000000e+00 0.0000e+00 -1.0000e+00
      -12  1    3    3    0    0 +7.9949804131e+00 +2.4191103474e+01 +5.6465409291e+01 6.1947329607e+01 0.0000000000e+00 0.0000e+00 1.0000e+00
<mgrwt>
<rscale>  0 0.81773277E+02</rscale>
<asrwt>0</asrwt>
<pdfrwt beam="1">  1        1 0.38706689E-02 0.81773277E+02</pdfrwt>
<pdfrwt beam="2">  1       -2 0.10222334E-01 0.81773277E+02</pdfrwt>
<totfact> 0.10982292E+05</totfact>
</mgrwt>
</event>
<event>
 5      1 +7.5707000e+03 8.17405500e+01 7.54677100e-03 1.32418300e-01
       -2 -1    0    0    0  501 -0.0000000000e+00 +0.0000000000e+00 +2.4345707455e+02 2.4345707455e+02 0.0000000000e+00 0.0000e+00 1.0000e+00
        1 -1    0    0  501    0 +0.0000000000e+00 -0.0000000000e+00 -6.8610836198e+00 6.8610836198e+00 0.0000000000e+00 0.0000e+00 -1.0000e+00
      -24  2    1    2    0    0 +0.0000000000e+00 +0.0000000000e+00 +2.3659599093e+02 2.5031815817e+02 8.1740549211e+01 0.0000e+00 0.0000e+00
       11  1    3    3    0    0 +3.9604511138e+00 +4.0486043246e+01 +1.0621258181e+02 1.1373617457e+02 0.0000000000e+00 0.0000e+00 -1.0000e+00
      -12  1    3    3    0    0 -3.9604511138e+00 -4.0486043246e+01 +1.3038340912e+02 1.3658198360e+02 0.0000000000e+00 0.0000e+00 1.0000e+00
<mgrwt>
<rscale>  0 0.81740549E+02</rscale>
<asrwt>0</asrwt>
<pdfrwt beam="1">  1        1 0.10555515E-02 0.81740549E+02</pdfrwt>
<pdfrwt beam="2">  1       -2 0.37454928E-01 0.81740549E+02</pdfrwt>
<totfact> 0.73862491E+04</totfact>
</mgrwt>
</event>
<event>
 5      1 +7.5707000e+03 7.99557100e+01 7.54677100e-03 1.32917700e-01
       -4 -1    0    0    0  501 -0.0000000000e+00 +0.0000000000e+00 +1.7112903493e+01 1.7112903493e+01 0.0000000000e+00 0.0000e+00 1.0000e+00
        3 -1    0    0  501    0 +0.0000000000e+00 -0.0000000000e+00 -9.3393199641e+01 9.3393199641e+01 0.0000000000e+00 0.0000e+00 -1.0000e+00
      -24  2    1    2    0    0 +0.0000000000e+00 +0.0000000000e+00 -7.6280296148e+01 1.1050610313e+02 7.9955708048e+01 0.0000e+00 0.0000e+00
       13  1    3    3    0    0 +1.0235902091e+01 -2.9308609901e+01 -7.2952958693e+01 7.9283683618e+01 0.0000000000e+00 0.0000e+00 -1.0000e+00
      -14  1    3    3    0    0 -1.0235902091e+01 +2.9308609901e+01 -3.3273374550e+00 3.1222419517e+01 0.0000000000e+00 0.0000e+00 1.0000e+00
<mgrwt>
<rscale>  0 0.79955708E+02</rscale>
<asrwt>0</asrwt>
<pdfrwt beam="1">  1        3 0.14368185E-01 0.79955708E+02</pdfrwt>
<pdfrwt beam="2">  1       -4 0.26327544E-02 0.79955708E+02</pdfrwt>
<totfact> 0.43130401E+04</totfact>
</mgrwt>
</event>
<event>
 5      1 +7.5707000e+03 8.07508700e+01 7.54677100e-03 1.32693400e-01
        1 -1    0    0  501    0 +0.0000000000e+00 +0.0000000000e+00 +2.8152595550e+01 2.8152595550e+01 0.0000000000e+00 0.0000e+00 -1.0000e+00
       -2 -1    0    0    0  501 -0.0000000000e+00 -0.0000000000e+00 -5.7904996523e+01 5.7904996523e+01 0.0000000000e+00 0.0000e+00 1.0000e+00
      -24  2    1    2    0    0 +0.0000000000e+00 +0.0000000000e+00 -2.9752400972e+01 8.6057592073e+01 8.0750874855e+01 0.0000e+00 0.0000e+00
       11  1    3    3    0    0 +1.2809886211e+01 +4.4707971702e+00 +2.5650414128e+01 2.9017666292e+01 0.0000000000e+00 0.0000e+00 -1.0000e+00
      -12  1    3    3    0    0 -1.2809886211e+01 -4.4707971702e+00 -5.5402815100e+01 5.7039925781e+01 0.0000000000e+00 0.0000e+00 1.0000e+00
<mgrwt>
<rscale>  0 0.80750875E+02</rscale>
<asrwt>0</asrwt>
<pdfrwt beam="1">  1        1 0.43311686E-02 0.80750875E+02</pdfrwt>
<pdfrwt beam="2">  1       -2 0.89084610E-02 0.80750875E+02</pdfrwt>
<totfact> 0.11639047E+05</totfact>
</mgrwt>
</event>
<event>
 5      1 +7.5707000e+03 8.27319900e+01 7.54677100e-03 1.32147200e-01
        1 -1    0    0  501    0 +0.0000000000e+00 +0.0000000000e+00 +3.8770096079e+00 3.8770096079e+00 0.0000000000e+00 0.0000e+00 -1.0000e+00
       -2 -1    0    0    0  501 -0.0000000000e+00 -0.0000000000e+00 -4.4135701951e+02 4.4135701951e+02 0.0000000000e+00 0.0000e+00 1.0000e+00
      -24  2    1    2    0    0 +0.0000000000e+00 +0.0000000000e+00 -4.3748000990e+02 4.4523402912e+02 8.2731986684e+01 0.0000e+00 0.0000e+00
       13  1    3    3    0    0 +4.5049664666e-01 -3.1349107599e+01 -7.3517792015e+01 7.9923934070e+01 0.0000000000e+00 0.0000e+00 -1.0000e+00
      -14  1    3    3    0    0 -4.5049664666e-01 +3.1349107599e+01 -3.6396221789e+02 3.6531009505e+02 0.0000000000e+00 0.0000e+00 1.0000e+00
<mgrwt>
<rscale>  0 0.82731987E+02</rscale>
<asrwt>0</asrwt>
<pdfrwt beam="1">  1        1 0.59646278E-03 0.82731987E+02</pdfrwt>
<pdfrwt beam="2">  1       -2 0.67901106E-01 0.82731987E+02</pdfrwt>
<totfact> 0.50644867E+04</totfact>
</mgrwt>
</event>
<event>
 5      1 +7.5707000e+03 8.25614100e+01 7.54677100e-03 1.32193600e-01
        1 -1    0    0  501    0 +0.0000000000e+00 +0.0000000000e+00 +2.6433753494e+02 2.6433753494e+02 0.0000000000e+00 0.0000e+00 -1.0000e+00
       -2 -1    0    0    0  501 -0.0000000000e+00 -0.0000000000e+00 -6.4466691642e+00 6.4466691642e+00 0.0000000000e+00 0.0000e+00 1.0000e+00
      -24  2    1    2    0    0 +0.0000000000e+00 +0.0000000000e+00 +2.5789086578e+02 2.7078420411e+02 8.2561410730e+01 0.0000e+00 0.0000e+00
       11  1    3    3    0    0 -2.0607503121e+01 -3.2578578160e+01 +1.7737804646e+02 1.8151860595e+02 0.0000000000e+00 0.0000e+00 -1.0000e+00
      -12  1    3    3    0    0 +2.0607503121e+01 +3.2578578160e+01 +8.0512819315e+01 8.9265598154e+01 0.0000000000e+00 0.0000e+00 1.0000e+00
<mgrwt>
<rscale>  0 0.82561411E+02</rscale>
<asrwt>0</asrwt>
<pdfrwt beam="1">  1        1 0.40667305E-01 0.82561411E+02</pdfrwt>
<pdfrwt beam="2">  1       -2 0.99179546E-03 0.82561411E+02</pdfrwt>
<totfact> 0.16197191E+05</totfact>
</mgrwt>
</event>
<event>
 5      1 +7.5707000e+03 5.49486300e+01 7.54677100e-03 1.42034200e-01
        1 -1    0    0  501    0 +0.0000000000e+00 +0.0000000000e+00 +1.3287223004e+02 1.3287223004e+02 0.0000000000e+00 0.0000e+00 -1.0000e+00
       -2 -1    0    0    0  501 -0.0000000000e+00 -0.0000000000e+00 -5.6809318938e+00 5.6809318938e+00 0.0000000000e+00 0.0000e+00 1.0000e+00
      -24  2    1    2    0    0 +0.0000000000e+00 +0.0000000000e+00 +1.2719129814e+02 1.3855316193e+02 5.4948633811e+01 0.0000e+00 0.0000e+00
       13  1    3    3    0    0 -1.0017095469e+00 +2.6875471996e+01 +4.9433939978e+01 5.6276183584e+01 0.0000000000e+00 0.0000e+00 -1.0000e+00
      -14  1    3    3    0    0 +1.0017095469e+00 -2.6875471996e+01 +7.7757358165e+01 8.2276978347e+01 0.0000000000e+00 0.0000e+00 1.0000e+00
<mgrwt>
<rscale>  0 0.54948634E+02</rscale>
<asrwt>0</asrwt>
<pdfrwt beam="1">  1        1 0.20441879E-01 0.54948634E+02</pdfrwt>
<pdfrwt beam="2">  1       -2 0.87398962E-03 0.54948634E+02</pdfrwt>
<totfact> 0.41245315E+05</totfact>
</mgrwt>
</event>
<event>
 5      1 +7.5707000e+03 8.05509100e+01 7.54677100e-03 1.32749500e-01
       -2 -1    0    0    0  501 -0.0000000000e+00 +0.0000000000e+00 +1.3462885795e+02 1.3462885795e+02 0.0000000000e+00 0.0000e+00 1.0000e+00
        1 -1    0    0  501    0 +0.0000000000e+00 -0.0000000000e+00 -1.2048769495e+01 1.2048769495e+01 0.0000000000e+00 0.0000e+00 -1.0000e+00
      -24  2    1    2    0    0 +0.0000000000e+00 +0.0000000000e+00 +1.2258008845e+02 1.4667762744e+02 8.0550905068e+01 0.0000e+00 0.0000e+00
       11  1    3    3    0    0 -2.0444331647e+01 +1.1586264611e+01 +1.7286279765e+00 2.3562690399e+01 0.0000000000e+00 0.0000e+00 -1.0000e+00
      -12  1    3    3    0    0 +2.0444331647e+01 -1.1586264611e+01 +1.2085146048e+02 1.2311493705e+02 0.0000000000e+00 0.0000e+00 1.0000e+00
<mgrwt>
<rscale>  0 0.80550905E+02</rscale>
<asrwt>0</asrwt>
<pdfrwt beam="1">  1        1 0.18536569E-02 0.80550905E+02</pdfrwt>
<pdfrwt beam="2">  1       -2 0.20712131E-01 0.80550905E+02</pdfrwt>
<totfact> 0.96088417E+04</totfact>
</mgrwt>
</event>
<event>
 5      1 +7.5707000e+03 7.93201100e+01 7.54677100e-03 1.33099200e-01
       -2 -1    0    0    0  501 -0.0000000000e+00 +0.0000000000e+00 +3.8574499332e+01 3.8574499332e+01 0.0000000000e+00 0.0000e+00 1.0000e+00
        1 -1    0    0  501    0 +0.0000000000e+00 -0.0000000000e+00 -4.0776165236e+01 4.0776165236e+01 0.0000000000e+00 0.0000e+00 -1.0000e+00
      -24  2    1    2    0    0 +0.0000000000e+00 +0.0000000000e+00 -2.2016659040e+00 7.9350664568e+01 7.9320114943e+01 0.0000e+00 0.0000e+00
       11  1    3    3    0    0 -2.2301712405e+01 -1.7329625986e+01 -2.8954649857e+01 4.0448165118e+01 0.0000000000e+00 0.0000e+00 -1.0000e+00
      -12  1    3    3    0    0 +2.2301712405e+01 +1.7329625986e+01 +2.6752983953e+01 3.8902499450e+01 0.0000000000e+00 0.0000e+00 1.0000e+00
<mgrwt>
<rscale>  0 0.79320115E+02</rscale>
<asrwt>0</asrwt>
<pdfrwt beam="1">  1        1 0.62732562E-02 0.79320115E+02</pdfrwt>
<pdfrwt beam="2">  1       -2 0.59345384E-02 0.79320115E+02</pdfrwt>
<totfact> 0.13046504E+05</totfact>
</mgrwt>
</event>
<event>
 5      1 +7.5707000e+03 7.62286700e+01 7.54677100e-03 1.34010800e-01
       -4 -1    0    0    0  501 -0.0000000000e+00 +0.0000000000e+00 +1.5393189580e+02 1.5393189580e+02 0.0000000000e+00 0.0000e+00 1.0000e+00
        3 -1    0    0  501    0 +0.0000000000e+00 -0.0000000000e+00 -9.4373066195e+00 9.4373066195e+00 0.0000000000e+00 0.0000e+00 -1.0000e+00
      -24  2    1    2    0    0 +0.0000000000e+00 +0.0000000000e+00 +1.4449458918e+02 1.6336920242e+02 7.6228669127e+01 0.0000e+00 0.0000e+00
       13  1    3    3    0    0 +2.8963415555e+01 +1.5240576231e+01 +3.0384676842e+01 4.4658517566e+01 0.0000000000e+00 0.0000e+00 -1.0000e+00
      -14  1    3    3    0    0 -2.8963415555e+01 -1.5240576231e+01 +1.1410991234e+02 1.1871068486e+02 0.0000000000e+00 0.0000e+00 1.0000e+00
<mgrwt>
<rscale>  0 0.76228669E+02</rscale>
<asrwt>0</asrwt>
<pdfrwt beam="1">  1        3 0.14518934E-02 0.76228669E+02</pdfrwt>
<pdfrwt beam="2">  1       -4 0.23681828E-01 0.76228669E+02</pdfrwt>
<totfact> 0.41055756E+04</totfact>
</mgrwt>
</event>
<event>
 5      1 +7.5707000e+03 7.92280000e+01 7.54677100e-03 1.33125700e-01
       -2 -1    0    0    0  501 -0.0000000000e+00 +0.0000000000e+00 +4.3193813332e+02 4.3193813332e+02 0.0000000000e+00 0.0000e+00 1.0000e+00
        1 -1    0    0  501    0 +0.0000000000e+00 -0.0000000000e+00 -3.6330877634e+00 3.6330877634e+00 0.0000000000e+00 0.0000e+00 -1.0000e+00
      -24  2    1    2    0    0 +0.0000000000e+00 +0.0000000000e+00 +4.2830504556e+02 4.3557122108e+02 7.9228003804e+01 0.0000e+00 0.0000e+00
       11  1    3    3    0    0 -2.2968325571e+01 -2.4121123805e+01 +9.6253408834e+01 1.0185328323e+02 0.0000000000e+00 0.0000e+00 -1.0000e+00
      -12  1    3    3    0    0 +2.2968325571e+01 +2.4121123805e+01 +3.3205163672e+02 3.3371793785e+02 0.0000000000e+00 0.0000e+00 1.0000e+00
<mgrwt>
<rscale>  0 0.79228004E+02</rscale>
<asrwt>0</asrwt>
<pdfrwt beam="1">  1        1 0.55893692E-03 0.79228004E+02</pdfrwt>
<pdfrwt beam="2">  1       -2 0.66451980E-01 0.79228004E+02</pdfrwt>
<totfact> 0.57507874E+04</totfact>
</mgrwt>
</event>
<event>
 5      1 +7.5707000e+03 7.98256200e+01 7.54677100e-03 1.32954700e-01
        1 -1    0    0  501    0 +0.0000000000e+00 +0.0000000000e+00 +5.4220299023e+01 5.4220299023e+01 0.0000000000e+00 0.0000e+00 -1.0000e+00
       -2 -1    0    0    0  501 -0.0000000000e+00 -0.0000000000e+00 -2.9380739099e+01 2.9380739099e+01 0.0000000000e+00 0.0000e+00 1.0000e+00
      -24  2    1    2    0    0 +0.0000000000e+00 +0.0000000000e+00 +2.4839559924e+01 8.3601038122e+01 7.9825621437e+01 0.0000e+00 0.0000e+00
       13  1    3    3    0    0 +1.0136417570e+01 -2.1208150858e+01 +4.6202169869e+01 5.1837950620e+01 0.0000000000e+00 0.0000e+00 -1.0000e+00
      -14  1    3    3    0    0 -1.0136417570e+01 +2.1208150858e+01 -2.1362609945e+01 3.1763087501e+01 0.0000000000e+00 0.0000e+00 1.0000e+00
<mgrwt>
<rscale>  0 0.79825621E+02</rscale>
<asrwt>0</asrwt>
<pdfrwt beam="1">  1        1 0.83415845E-02 0.79825621E+02</pdfrwt>
<pdfrwt beam="2">  1       -2 0.45201137E-02 0.79825621E+02</pdfrwt>
<totfact> 0.13406247E+05</totfact>
</mgrwt>
</event>
<event>
 5      1 +7.5707000e+03 7.98093700e+01 7.54677100e-03 1.32959300e-01
        1 -1    0    0  501    0 +0.0000000000e+00 +0.0000000000e+00 +1.7736938950e+02 1.7736938950e+02 0.0000000000e+00 0.0000e+00 -1.0000e+00
       -2 -1    0    0    0  501 -0.0000000000e+00 -0.0000000000e+00 -8.9777834943e+00 8.9777834943e+00 0.0000000000e+00 0.0000e+00 1.0000e+00
      -24  2    1    2    0    0 +0.0000000000e+00 +0.0000000000e+00 +1.6839160601e+02 1.8634717300e+02 7.9809372318e+01 0.0000e+00 0.0000e+00
       13  1    3    3    0    0 +2.7336407219e+01 +2.0903949500e+00 +1.5189733471e+02 1.5435170619e+02 0.0000000000e+00 0.0000e+00 -1.0000e+00
      -14  1    3    3    0    0 -2.7336407219e+01 -2.0903949500e+00 +1.6494271296e+01 3.1995466808e+01 0.0000000000e+00 0.0000e+00 1.0000e+00
<mgrwt>
<rscale>  0 0.79809372E+02</rscale>
<asrwt>0</asrwt>
<pdfrwt beam="1">  1        1 0.27287596E-01 0.79809372E+02</pdfrwt>
<pdfrwt beam="2">  1       -2 0.13811976E-02 0.79809372E+02</pdfrwt>
<totfact> 0.16396197E+05</totfact>
</mgrwt>
</event>
<event>
 5      1 +7.5707000e+03 8.62971100e+01 7.54677100e-03 1.31207500e-01
        1 -1    0    0  501    0 +0.0000000000e+00 +0.0000000000e+00 +4.2114222676e+02 4.2114222676e+02 0.0000000000e+00 0.0000e+00 -1.0000e+00
       -2 -1    0    0    0  501 -0.0000000000e+00 -0.0000000000e+00 -4.4208287812e+00 4.4208287812e+00 0.0000000000e+00 0.0000e+00 1.0000e+00
      -24  2    1    2    0    0 +0.0000000000e+00 +0.0000000000e+00 +4.1672139798e+02 4.2556305554e+02 8.6297107183e+01 0.0000e+00 0.0000e+00
       13  1    3    3    0    0 +1.1743914113e+01 -4.1195432157e+01 +2.3389669235e+02 2.3778697576e+02 0.0000000000e+00 0.0000e+00 -1.0000e+00
      -14  1    3    3    0    0 -1.1743914113e+01 +4.1195432157e+01 +1.8282470562e+02 1.8777607977e+02 0.0000000000e+00 0.0000e+00 1.0000e+00
<mgrwt>
<rscale>  0 0.86297107E+02</rscale>
<asrwt>0</asrwt>
<pdfrwt beam="1">  1        1 0.64791080E-01 0.86297107E+02</pdfrwt>
<pdfrwt beam="2">  1       -2 0.68012784E-03 0.86297107E+02</pdfrwt>
<totfact> 0.15684273E+05</totfact>
</mgrwt>
</event>
<event>
 5      1 +7.5707000e+03 7.74676300e+01 7.54677100e-03 1.33639600e-01
       -4 -1    0    0    0  501 -0.0000000000e+00 +0.0000000000e+00 +5.7812902520e+01 5.7812902520e+01 0.0000000000e+00 0.0000e+00 1.0000e+00
        3 -1    0    0  501    0 +0.0000000000e+00 -0.0000000000e+00 -2.5951099682e+01 2.5951099682e+01 0.0000000000e+00 0.0000e+00 -1.0000e+00
      -24  2    1    2    0    0 +0.0000000000e+00 +0.0000000000e+00 +3.1861802838e+01 8.3764002202e+01 7.7467629271e+01 0.0000e+00 0.0000e+00
       11  1    3    3    0    0 -2.8782866959e+01 -1.8555595745e+01 -3.6382741682e+00 3.4438359466e+01 0.0000000000e+00 0.0000e+00 -1.0000e+00
      -12  1    3    3    0    0 +2.8782866959e+01 +1.8555595745e+01 +3.5500077006e+01 4.9325642736e+01 0.0000000000e+00 0.0000e+00 1.0000e+00
<mgrwt>
<rscale>  0 0.77467629E+02</rscale>
<asrwt>0</asrwt>
<pdfrwt beam="1">  1        3 0.39924769E-02 0.77467629E+02</pdfrwt>
<pdfrwt beam="2">  1       -4 0.88942926E-02 0.77467629E+02</pdfrwt>
<totfact> 0.48181876E+04</totfact>
</mgrwt>
</event>
<event>
 5      1 +7.5707000e+03 8.10520300e+01 7.54677100e-03 1.32609200e-01
       -2 -1    0    0    0  501 -0.0000000000e+00 +0.0000000000e+00 +4.7939591032e+01 4.7939591032e+01 0.0000000000e+00 0.0000e+00 1.0000e+00
        1 -1    0    0  501    0 +0.0000000000e+00 -0.0000000000e+00 -3.4258905353e+01 3.4258905353e+01 0.0000000000e+00 0.0000e+00 -1.0000e+00
      -24  2    1    2    0    0 +0.0000000000e+00 +0.0000000000e+00 +1.3680685679e+01 8.2198496385e+01 8.1052030494e+01 0.0000e+00 0.0000e+00
       13  1    3    3    0    0 -4.7552405342e+00 +3.2229730849e+01 -1.7604335169e+01 3.7030804473e+01 0.0000000000e+00 0.0000e+00 -1.0000e+00
      -14  1    3    3    0    0 +4.7552405342e+00 -3.2229730849e+01 +3.1285020848e+01 4.5167691912e+01 0.0000000000e+00 0.0000e+00 1.0000e+00
<mgrwt>
<rscale>  0 0.81052030E+02</rscale>
<asrwt>0</asrwt>
<pdfrwt beam="1">  1        1 0.52706008E-02 0.81052030E+02</pdfrwt>
<pdfrwt beam="2">  1       -2 0.73753217E-02 0.81052030E+02</pdfrwt>
<totfact> 0.11923366E+05</totfact>
</mgrwt>
</event>
<event>
 5      1 +7.5707000e+03 8.05194600e+01 7.54677100e-03 1.32758400e-01
       -2 -1    0    0    0  501 -0.0000000000e+00 +0.0000000000e+00 +4.4870852863e+00 4.4870852863e+00 0.0000000000e+00 0.0000e+00 1.0000e+00
        1 -1    0    0  501    0 +0.0000000000e+00 -0.0000000000e+00 -3.6122470201e+02 3.6122470201e+02 0.0000000000e+00 0.0000e+00 -1.0000e+00
      -24  2    1    2    0    0 +0.0000000000e+00 +0.0000000000e+00 -3.5673761672e+02 3.6571178729e+02 8.0519464614e+01 0.0000e+00 0.0000e+00
       13  1    3    3    0    0 +1.7081501880e+01 -3.6271920291e+01 -1.9500492004e+02 1.9908377319e+02 0.0000000000e+00 0.0000e+00 -1.0000e+00
      -14  1    3    3    0    0 -1.7081501880e+01 +3.6271920291e+01 -1.6173269668e+02 1.6662801410e+02 0.0000000000e+00 0.0000e+00 1.0000e+00
<mgrwt>
<rscale>  0 0.80519465E+02</rscale>
<asrwt>0</asrwt>
<pdfrwt beam="1">  1        1 0.55573024E-01 0.80519465E+02</pdfrwt>
<pdfrwt beam="2">  1       -2 0.69032090E-03 0.80519465E+02</pdfrwt>
<totfact> 0.18352044E+05</totfact>
</mgrwt>
</event>
<event>
 5      1 +7.5707000e+03 8.12483100e+01 7.54677100e-03 1.32554600e-01
        1 -1    0    0  501    0 +0.0000000000e+00 +0.0000000000e+00 +2.9611447963e+02 2.9611447963e+02 0.0000000000e+00 0.0000e+00 -1.0000e+00
       -2 -1    0    0    0  501 -0.0000000000e+00 -0.0000000000e+00 -5.5732565190e+00 5.5732565190e+00 0.0000000000e+00 0.0000e+00 1.0000e+00
      -24  2    1    2    0    0 +0.0000000000e+00 +0.0000000000e+00 +2.9054122311e+02 3.0168773615e+02 8.1248309619e+01 0.0000e+00 0.0000e+00
       11  1    3    3    0    0 -7.0515400637e+00 -3.5185743703e+01 +7.4568241738e+01 8.2753751897e+01 0.0000000000e+00 0.0000e+00 -1.0000e+00
      -12  1    3    3    0    0 +7.0515400637e+00 +3.5185743703e+01 +2.1597298138e+02 2.1893398425e+02 0.0000000000e+00 0.0000e+00 1.0000e+00
<mgrwt>
<rscale>  0 0.81248310E+02</rscale>
<asrwt>0</asrwt>
<pdfrwt beam="1">  1        1 0.45556061E-01 0.81248310E+02</pdfrwt>
<pdfrwt beam="2">  1       -2 0.85742431E-03 0.81248310E+02</pdfrwt>
<totfact> 0.17276268E+05</totfact>
</mgrwt>
</event>
<event>
 5      1 +7.5707000e+03 8.09994100e+01 7.54677100e-03 1.32623900e-01
        1 -1    0    0  501    0 +0.0000000000e+00 +0.0000000000e+00 +2.6563610324e+01 2.6563610324e+01 0.0000000000e+00 0.0000e+00 -1.0000e+00
       -2 -1    0    0    0  501 -0.0000000000e+00 -0.0000000000e+00 -6.1747115136e+01 6.1747115136e+01 0.0000000000e+00 0.0000e+00 1.0000e+00
      -24  2    1    2    0    0 +0.0000000000e+00 +0.0000000000e+00 -3.5183504812e+01 8.8310725460e+01 8.0999414938e+01 0.0000e+00 0.0000e+00
       13  1    3    3    0    0 -3.6644164089e+01 +1.2841084086e+01 -5.0400698974e+00 3.9154699677e+01 0.0000000000e+00 0.0000e+00 -1.0000e+00
      -14  1    3    3    0    0 +3.6644164089e+01 -1.2841084086e+01 -3.0143434915e+01 4.9156025782e+01 0.0000000000e+00 0.0000e+00 1.0000e+00
<mgrwt>
<rscale>  0 0.80999415E+02</rscale>
<asrwt>0</asrwt>
<pdfrwt beam="1">  1        1 0.40867094E-02 0.80999415E+02</pdfrwt>
<pdfrwt beam="2">  1       -2 0.94995560E-02 0.80999415E+02</pdfrwt>
<totfact> 0.11410978E+05</totfact>
</mgrwt>
</event>
<event>
 5      1 +7.5707000e+03 8.52497500e+01 7.54677100e-03 1.31478100e-01
        1 -1    0    0  501    0 +0.0000000000e+00 +0.0000000000e+00 +8.0293180384e+01 8.0293180384e+01 0.0000000000e+00 0.0000e+00 -1.0000e+00
       -2 -1    0    0    0  501 -0.0000000000e+00 -0.0000000000e+00 -2.2628074384e+01 2.2628074384e+01 0.0000000000e+00 0.0000e+00 1.0000e+00
      -24  2    1    2    0    0 +0.0000000000e+00 +0.0000000000e+00 +5.7665106000e+01 1.0292125477e+02 8.5249752099e+01 0.0000e+00 0.0000e+00
       11  1    3    3    0    0 -2.2771153980e+01 +1.1118991296e+01 +7.0211517318e+01 7.4644588452e+01 0.0000000000e+00 0.0000e+00 -1.0000e+00
      -12  1    3    3    0    0 +2.2771153980e+01 -1.1118991296e+01 -1.2546411318e+01 2.8276666316e+01 0.0000000000e+00 0.0000e+00 1.0000e+00
<mgrwt>
<rscale>  0 0.85249752E+02</rscale>
<asrwt>0</asrwt>
<pdfrwt beam="1">  1        1 0.12352797E-01 0.85249752E+02</pdfrwt>
<pdfrwt beam="2">  1       -2 0.34812422E-02 0.85249752E+02</pdfrwt>
<totfact> 0.11914781E+05</totfact>
</mgrwt>
</event>
<event>
 5      1 +7.5707000e+03 7.90671900e+01 7.54677100e-03 1.33172000e-01
       -2 -1    0    0    0  501 -0.0000000000e+00 +0.0000000000e+00 +6.3940077173e+01 6.3940077173e+01 0.0000000000e+00 0.0000e+00 1.0000e+00
        1 -1    0    0  501    0 +0.0000000000e+00 -0.0000000000e+00 -2.4443281559e+01 2.4443281559e+01 0.0000000000e+00 0.0000e+00 -1.0000e+00
      -24  2    1    2    0    0 +0.0000000000e+00 +0.0000000000e+00 +3.9496795614e+01 8.8383358733e+01 7.9067194443e+01 0.0000e+00 0.0000e+00
       11  1    3    3    0    0 +2.3470301678e+01 -4.3622796804e+00 -1.5476791644e+01 2.8450230657e+01 0.0000000000e+00 0.0000e+00 -1.0000e+00
      -12  1    3    3    0    0 -2.3470301678e+01 +4.3622796804e+00 +5.4973587258e+01 5.9933128075e+01 0.0000000000e+00 0.0000e+00 1.0000e+00
<mgrwt>
<rscale>  0 0.79067194E+02</rscale>
<asrwt>0</asrwt>
<pdfrwt beam="1">  1        1 0.37605049E-02 0.79067194E+02</pdfrwt>
<pdfrwt beam="2">  1       -2 0.98369349E-02 0.79067194E+02</pdfrwt>
<totfact> 0.12050104E+05</totfact>
</mgrwt>
</event>
<event>
 5      1 +7.5707000e+03 8.16980100e+01 7.54677100e-03 1.32430100e-01
       -2 -1    0    0    0  501 -0.0000000000e+00 +0.0000000000e+00 +2.2666231091e+01 2.2666231091e+01 0.0000000000e+00 0.0000e+00 1.0000e+00
        1 -1    0    0  501    0 +0.0000000000e+00 -0.0000000000e+00 -7.3617943568e+01 7.3617943568e+01 0.0000000000e+00 0.0000e+00 -1.0000e+00
      -24  2    1    2    0    0 +0.0000000000e+00 +0.0000000000e+00 -5.0951712477e+01 9.6284174658e+01 8.1698012738e+01 0.0000e+00 0.0000e+00
       13  1    3    3    0    0 +2.4470637940e+01 +2.0208283129e+01 -5.5786377473e+01 6.4181825619e+01 0.0000000000e+00 0.0000e+00 -1.0000e+00
      -14  1    3    3    0    0 -2.4470637940e+01 -2.0208283129e+01 +4.8346649963e+00 3.2102349039e+01 0.0000000000e+00 0.0000e+00 1.0000e+00
<mgrwt>
<rscale>  0 0.81698013E+02</rscale>
<asrwt>0</asrwt>
<pdfrwt beam="1">  1        1 0.11325837E-01 0.81698013E+02</pdfrwt>
<pdfrwt beam="2">  1       -2 0.34871125E-02 0.81698013E+02</pdfrwt>
<totfact> 0.13200985E+05</totfact>
</mgrwt>
</event>
<event>
 5      1 +7.5707000e+03 8.37651500e+01 7.54677100e-03 1.31869400e-01
        1 -1    0    0  501    0 +0.0000000000e+00 +0.0000000000e+00 +7.2743094242e+01 7.2743094242e+01 0.0000000000e+00 0.0000e+00 -1.0000e+00
       -2 -1    0    0    0  501 -0.0000000000e+00 -0.0000000000e+00 -2.4114318897e+01 2.4114318897e+01 0.0000000000e+00 0.0000e+00 1.0000e+00
      -24  2    1    2    0    0 +0.0000000000e+00 +0.0000000000e+00 +4.8628775345e+01 9.6857413139e+01 8.3765151993e+01 0.0000e+00 0.0000e+00
       13  1    3    3    0    0 +2.6431933985e+01 -3.0983362682e+01 +3.5616226004e+01 5.4102970824e+01 0.0000000000e+00 0.0000e+00 -1.0000e+00
      -14  1    3    3    0    0 -2.6431933985e+01 +3.0983362682e+01 +1.3012549341e+01 4.2754442314e+01 0.0000000000e+00 0.0000e+00 1.0000e+00
<mgrwt>
<rscale>  0 0.83765152E+02</rscale>
<asrwt>0</asrwt>
<pdfrwt beam="1">  1        1 0.11191245E-01 0.83765152E+02</pdfrwt>
<pdfrwt beam="2">  1       -2 0.37098953E-02 0.83765152E+02</pdfrwt>
<totfact> 0.12301353E+05</totfact>
</mgrwt>
</event>
<event>
 5      1 +7.5707000e+03 8.15043700e+01 7.54677100e-03 1.32483600e-01
       -2 -1    0    0    0  501 -0.0000000000e+00 +0.0000000000e+00 +2.0212616018e+01 2.0212616018e+01 0.0000000000e+00 0.0000e+00 1.0000e+00
        1 -1    0    0  501    0 +0.0000000000e+00 -0.0000000000e+00 -8.2163564626e+01 8.2163564626e+01 0.0000000000e+00 0.0000e+00 -1.0000e+00
      -24  2    1    2    0    0 +0.0000000000e+00 +0.0000000000e+00 -6.1950948608e+01 1.0237618064e+02 8.1504370004e+01 0.0000e+00 0.0000e+00
       11  1    3    3    0    0 -3.1470122366e+01 +1.9972867821e+01 -1.0280343469e+01 3.8664835608e+01 0.0000000000e+00 0.0000e+00 -1.0000e+00
      -12  1    3    3    0    0 +3.1470122366e+01 -1.9972867821e+01 -5.1670605139e+01 6.3711345035e+01 0.0000000000e+00 0.0000e+00 1.0000e+00
<mgrwt>
<rscale>  0 0.81504370E+02</rscale>
<asrwt>0</asrwt>
<pdfrwt beam="1">  1        1 0.12640548E-01 0.81504370E+02</pdfrwt>
<pdfrwt beam="2">  1       -2 0.31096332E-02 0.81504370E+02</pdfrwt>
<totfact> 0.13526237E+05</totfact>
</mgrwt>
</event>
<event>
 5      1 +7.5707000e+03 8.05239300e+01 7.54677100e-03 1.32757100e-01
       -2 -1    0    0    0  501 -0.0000000000e+00 +0.0000000000e+00 +2.1656747339e+02 2.1656747339e+02 0.0000000000e+00 0.0000e+00 1.0000e+00
        1 -1    0    0  501    0 +0.0000000000e+00 -0.0000000000e+00 -7.4850849600e+00 7.4850849600e+00 0.0000000000e+00 0.0000e+00 -1.0000e+00
      -24  2    1    2    0    0 +0.0000000000e+00 +0.0000000000e+00 +2.0908238843e+02 2.2405255835e+02 8.0523932787e+01 0.0000e+00 0.0000e+00
       11  1    3    3    0    0 -3.4898266610e+01 +1.7969484967e+01 +7.9617891005e+01 8.8768237397e+01 0.0000000000e+00 0.0000e+00 -1.0000e+00
      -12  1    3    3    0    0 +3.4898266610e+01 -1.7969484967e+01 +1.2946449742e+02 1.3528432095e+02 0.0000000000e+00 0.0000e+00 1.0000e+00
<mgrwt>
<rscale>  0 0.80523933E+02</rscale>
<asrwt>0</asrwt>
<pdfrwt beam="1">  1        1 0.11515517E-02 0.80523933E+02</pdfrwt>
<pdfrwt beam="2">  1       -2 0.33318068E-01 0.80523933E+02</pdfrwt>
<totfact> 0.80920118E+04</totfact>
</mgrwt>
</event>
<event>
 5      1 +7.5707000e+03 8.15275000e+01 7.54677100e-03 1.32477200e-01
        1 -1    0    0  501    0 +0.0000000000e+00 +0.0000000000e+00 +5.1889617741e+01 5.1889617741e+01 0.0000000000e+00 0.0000e+00 -1.0000e+00
       -2 -1    0    0    0  501 -0.0000000000e+00 -0.0000000000e+00 -3.2023425154e+01 3.2023425154e+01 0.0000000000e+00 0.0000e+00 1.0000e+00
      -24  2    1    2    0    0 +0.0000000000e+00 +0.0000000000e+00 +1.9866192587e+01 8.3913042894e+01 8.1527499409e+01 0.0000e+00 0.0000e+00
       11  1    3    3    0    0 +1.4820608165e+01 -7.2503741080e+00 +4.8299327905e+01 5.1039626049e+01 0.0000000000e+00 0.0000e+00 -1.0000e+00
      -12  1    3    3    0    0 -1.4820608165e+01 +7.2503741080e+00 -2.8433135318e+01 3.2873416846e+01 0.0000000000e+00 0.0000e+00 1.0000e+00
<mgrwt>
<rscale>  0 0.81527499E+02</rscale>
<asrwt>0</asrwt>
<pdfrwt beam="1">  1        1 0.79830181E-02 0.81527499E+02</pdfrwt>
<pdfrwt beam="2">  1       -2 0.49266808E-02 0.81527499E+02</pdfrwt>
<totfact> 0.12555950E+05</totfact>
</mgrwt>
</event>
<event>
 5      1 +7.5707000e+03 8.07844700e+01 7.54677100e-03 1.32684000e-01
       -2 -1    0    0    0  501 -0.0000000000e+00 +0.0000000000e+00 +1.3343211027e+02 1.3343211027e+02 0.0000000000e+00 0.0000e+00 1.0000e+00
        1 -1    0    0  501    0 +0.0000000000e+00 -0.0000000000e+00 -1.2227437287e+01 1.2227437287e+01 0.0000000000e+00 0.0000e+00 -1.0000e+00
      -24  2    1    2    0    0 +0.0000000000e+00 +0.0000000000e+00 +1.2120467298e+02 1.4565954755e+02 8.0784472774e+01 0.0000e+00 0.0000e+00
       13  1    3    3    0    0 -1.3516372467e+01 -3.7866195097e+01 +6.7583640808e+01 7.8638982449e+01 0.0000000000e+00 0.0000e+00 -1.0000e+00
      -14  1    3    3    0    0 +1.3516372467e+01 +3.7866195097e+01 +5.3621032173e+01 6.7020565106e+01 0.0000000000e+00 0.0000e+00 1.0000e+00
<mgrwt>
<rscale>  0 0.80784473E+02</rscale>
<asrwt>0</asrwt>
<pdfrwt beam="1">  1        1 0.18811443E-02 0.80784473E+02</pdfrwt>
<pdfrwt beam="2">  1       -2 0.20528016E-01 0.80784473E+02</pdfrwt>
<totfact> 0.95634758E+04</totfact>
</mgrwt>
</event>
<event>
 5      1 +7.5707000e+03 8.04982800e+01 7.54677100e-03 1.32764300e-01
        1 -1    0    0  501    0 +0.0000000000e+00 +0.0000000000e+00 +1.6757535804e+01 1.6757535804e+01 0.0000000000e+00 0.0000e+00 -1.0000e+00
       -2 -1    0    0    0  501 -0.0000000000e+00 -0.0000000000e+00 -9.6672511486e+01 9.6672511486e+01 0.0000000000e+00 0.0000e+00 1.0000e+00
      -24  2    1    2    0    0 +0.0000000000e+00 +0.0000000000e+00 -7.9914975682e+01 1.1343004729e+02 8.0498275074e+01 0.0000e+00 0.0000e+00
       13  1    3    3    0    0 -1.3895618791e+01 +2.3395732771e+01 +1.8323279722e+00 2.7272806223e+01 0.0000000000e+00 0.0000e+00 -1.0000e+00
      -14  1    3    3    0    0 +1.3895618791e+01 -2.3395732771e+01 -8.1747303654e+01 8.6157241067e+01 0.0000000000e+00 0.0000e+00 1.0000e+00
<mgrwt>
<rscale>  0 0.80498275E+02</rscale>
<asrwt>0</asrwt>
<pdfrwt beam="1">  1        1 0.25780825E-02 0.80498275E+02</pdfrwt>
<pdfrwt beam="2">  1       -2 0.14872694E-01 0.80498275E+02</pdfrwt>
<totfact> 0.10532734E+05</totfact>
</mgrwt>
</event>
<event>
 5      1 +7.5707000e+03 7.96911700e+01 7.54677100e-03 1.32993000e-01
       -2 -1    0    0    0  501 -0.0000000000e+00 +0.0000000000e+00 +6.9550652414e+00 6.9550652414e+00 0.0000000000e+00 0.0000e+00 1.0000e+00
        1 -1    0    0  501    0 +0.0000000000e+00 -0.0000000000e+00 -2.2827544368e+02 2.2827544368e+02 0.0000000000e+00 0.0000e+00 -1.0000e+00
      -24  2    1    2    0    0 +0.0000000000e+00 +0.0000000000e+00 -2.2132037844e+02 2.3523050893e+02 7.9691168992e+01 0.0000e+00 0.0000e+00
       13  1    3    3    0    0 -1.5621495914e+01 -3.3847326932e+01 -1.5219514709e+02 1.5669408244e+02 0.0000000000e+00 0.0000e+00 -1.0000e+00
      -14  1    3    3    0    0 +1.5621495914e+01 +3.3847326932e+01 -6.9125231354e+01 7.8536426483e+01 0.0000000000e+00 0.0000e+00 1.0000e+00
<mgrwt>
<rscale>  0 0.79691169E+02</rscale>
<asrwt>0</asrwt>
<pdfrwt beam="1">  1        1 0.35119306E-01 0.79691169E+02</pdfrwt>
<pdfrwt beam="2">  1       -2 0.10700098E-02 0.79691169E+02</pdfrwt>
<totfact> 0.17285264E+05</totfact>
</mgrwt>
</event>
<event>
 5      1 +7.5707000e+03 8.09590600e+01 7.54677100e-03 1.32635200e-01
        1 -1    0    0  501    0 +0.0000000000e+00 +0.0000000000e+00 +1.7282754460e+02 1.7282754460e+02 0.0000000000e+00 0.0000e+00 -1.0000e+00
       -2 -1    0    0    0  501 -0.0000000000e+00 -0.0000000000e+00 -9.4810830550e+00 9.4810830550e+00 0.0000000000e+00 0.0000e+00 1.0000e+00
      -24  2    1    2    0    0 +0.0000000000e+00 +0.0000000000e+00 +1.6334646154e+02 1.8230862765e+02 8.0959058901e+01 0.0000e+00 0.0000e+00
       11  1    3    3    0    0 +3.8598477332e+01 +3.2812652458e+00 +1.0812500451e+02 1.1485480293e+02 0.0000000000e+00 0.0000e+00 -1.0000e+00
      -12  1    3    3    0    0 -3.8598477332e+01 -3.2812652458e+00 +5.5221457030e+01 6.7453824728e+01 0.0000000000e+00 0.0000e+00 1.0000e+00
<mgrwt>
<rscale>  0 0.80959059E+02</rscale>
<asrwt>0</asrwt>
<pdfrwt beam="1">  1        1 0.26588851E-01 0.80959059E+02</pdfrwt>
<pdfrwt beam="2">  1       -2 0.14586283E-02 0.80959059E+02</pdfrwt>
<totfact> 0.15705509E+05</totfact>
</mgrwt>
</event>
<event>
 5      1 +7.5707000e+03 7.53780300e+01 7.54677100e-03 1.34270400e-01
       -2 -1    0    0    0  501 -0.0000000000e+00 +0.0000000000e+00 +2.4798482559e+02 2.4798482559e+02 0.0000000000e+00 0.0000e+00 1.0000e+00
        1 -1    0    0  501    0 +0.0000000000e+00 -0.0000000000e+00 -5.7280189792e+00 5.7280189792e+00 0.0000000000e+00 0.0000e+00 -1.0000e+00
      -24  2    1    2    0    0 +0.0000000000e+00 +0.0000000000e+00 +2.4225680661e+02 2.5371284457e+02 7.5378028299e+01 0.0000e+00 0.0000e+00
       13  1    3    3    0    0 -1.1645865101e+00 +2.6528768078e+01 +3.1105938870e+01 4.0898792530e+01 0.0000000000e+00 0.0000e+00 -1.0000e+00
      -14  1    3    3    0    0 +1.1645865101e+00 -2.6528768078e+01 +2.1115086774e+02 2.1281405204e+02 0.0000000000e+00 0.0000e+00 1.0000e+00
<mgrwt>
<rscale>  0 0.75378028E+02</rscale>
<asrwt>0</asrwt>
<pdfrwt beam="1">  1        1 0.88123388E-03 0.75378028E+02</pdfrwt>
<pdfrwt beam="2">  1       -2 0.38151503E-01 0.75378028E+02</pdfrwt>
<totfact> 0.90242683E+04</totfact>
</mgrwt>
</event>
<event>
 5      1 +7.5707000e+03 8.57012300e+01 7.54677100e-03 1.31360900e-01
        3 -1    0    0  501    0 +0.0000000000e+00 +0.0000000000e+00 +2.1606118946e+02 2.1606118946e+02 0.0000000000e+00 0.0000e+00 -1.0000e+00
       -4 -1    0    0    0  501 -0.0000000000e+00 -0.0000000000e+00 -8.4984027851e+00 8.4984027851e+00 0.0000000000e+00 0.0000e+00 1.0000e+00
      -24  2    1    2    0    0 +0.0000000000e+00 +0.0000000000e+00 +2.0756278668e+02 2.2455959225e+02 8.5701225528e+01 0.0000e+00 0.0000e+00
       11  1    3    3    0    0 -1.1833296379e+01 +3.9050190799e+01 +1.3806886068e+02 1.4397206185e+02 0.0000000000e+00 0.0000e+00 -1.0000e+00
      -12  1    3    3    0    0 +1.1833296379e+01 -3.9050190799e+01 +6.9493926001e+01 8.0587530398e+01 0.0000000000e+00 0.0000e+00 1.0000e+00
<mgrwt>
<rscale>  0 0.85701226E+02</rscale>
<asrwt>0</asrwt>
<pdfrwt beam="1">  1        3 0.33240179E-01 0.85701226E+02</pdfrwt>
<pdfrwt beam="2">  1       -4 0.13074467E-02 0.85701226E+02</pdfrwt>
<totfact> 0.29156613E+04</totfact>
</mgrwt>
</event>
<event>
 5      1 +7.5707000e+03 8.15060300e+01 7.54677100e-03 1.32483100e-01
       -4 -1    0    0    0  501 -0.0000000000e+00 +0.0000000000e+00 +2.1295216976e+02 2.1295216976e+02 0.0000000000e+00 0.0000e+00 1.0000e+00
        3 -1    0    0  501    0 +0.0000000000e+00 -0.0000000000e+00 -7.7989731264e+00 7.7989731264e+00 0.0000000000e+00 0.0000e+00 -1.0000e+00
      -24  2    1    2    0    0 +0.0000000000e+00 +0.0000000000e+00 +2.0515319663e+02 2.2075114288e+02 8.1506030431e+01 0.0000e+00 0.0000e+00
       13  1    3    3    0    0 +2.5139113590e+01 -2.6851041871e+01 +5.5055533855e+01 6.6212274464e+01 0.0000000000e+00 0.0000e+00 -1.0000e+00
      -14  1    3    3    0    0 -2.5139113590e+01 +2.6851041871e+01 +1.5009766277e+02 1.5453886842e+02 0.0000000000e+00 0.0000e+00 1.0000e+00
<mgrwt>
<rscale>  0 0.81506030E+02</rscale>
<asrwt>0</asrwt>
<pdfrwt beam="1">  1        3 0.11998422E-02 0.81506030E+02</pdfrwt>
<pdfrwt beam="2">  1       -4 0.32761868E-01 0.81506030E+02</pdfrwt>
<totfact> 0.30543385E+04</totfact>
</mgrwt>
</event>
<event>
 5      1 +7.5707000e+03 8.06097300e+01 7.54677100e-03 1.32733000e-01
        1 -1    0    0  501    0 +0.0000000000e+00 +0.0000000000e+00 +2.9479963595e+01 2.9479963595e+01 0.0000000000e+00 0.0000e+00 -1.0000e+00
       -2 -1    0    0    0  501 -0.0000000000e+00 -0.0000000000e+00 -5.5104624965e+01 5.5104624965e+01 0.0000000000e+00 0.0000e+00 1.0000e+00
      -24  2    1    2    0    0 +0.0000000000e+00 +0.0000000000e+00 -2.5624661370e+01 8.4584588560e+01 8.0609734844e+01 0.0000e+00 0.0000e+00
       11  1    3    3    0    0 -1.6197625979e+01 -3.3452875744e+01 +3.5456107182e+00 3.7336702295e+01 0.0000000000e+00 0.0000e+00 -1.0000e+00
      -12  1    3    3    0    0 +1.6197625979e+01 +3.3452875744e+01 -2.9170272088e+01 4.7247886266e+01 0.0000000000e+00 0.0000e+00 1.0000e+00
<mgrwt>
<rscale>  0 0.80609735E+02</rscale>
<asrwt>0</asrwt>
<pdfrwt beam="1">  1        1 0.45353790E-02 0.80609735E+02</pdfrwt>
<pdfrwt beam="2">  1       -2 0.84776346E-02 0.80609735E+02</pdfrwt>
<totfact> 0.11796453E+05</totfact>
</mgrwt>
</event>
<event>
 5      1 +7.5707000e+03 8.25413800e+01 7.54677100e-03 1.32199000e-01
        1 -1    0    0  501    0 +0.0000000000e+00 +0.0000000000e+00 +4.5320956109e+02 4.5320956109e+02 0.0000000000e+00 0.0000e+00 -1.0000e+00
       -2 -1    0    0    0  501 -0.0000000000e+00 -0.0000000000e+00 -3.7582390632e+00 3.7582390632e+00 0.0000000000e+00 0.0000e+00 1.0000e+00
      -24  2    1    2    0    0 +0.0000000000e+00 +0.0000000000e+00 +4.4945132202e+02 4.5696780015e+02 8.2541380563e+01 0.0000e+00 0.0000e+00
       13  1    3    3    0    0 -3.7538498428e+01 -5.6756733831e+00 +1.3512807044e+02 1.4036006395e+02 0.0000000000e+00 0.0000e+00 -1.0000e+00
      -14  1    3    3    0    0 +3.7538498428e+01 +5.6756733831e+00 +3.1432325159e+02 3.1660773620e+02 0.0000000000e+00 0.0000e+00 1.0000e+00
<mgrwt>
<rscale>  0 0.82541381E+02</rscale>
<asrwt>0</asrwt>
<pdfrwt beam="1">  1        1 0.69724505E-01 0.82541381E+02</pdfrwt>
<pdfrwt beam="2">  1       -2 0.57819098E-03 0.82541381E+02</pdfrwt>
<totfact> 0.17832811E+05</totfact>
</mgrwt>
</event>
<event>
 5      1 +7.5707000e+03 7.98808200e+01 7.54677100e-03 1.32939000e-01
        1 -1    0    0  501    0 +0.0000000000e+00 +0.0000000000e+00 +3.0200279921e+02 3.0200279921e+02 0.0000000000e+00 0.0000e+00 -1.0000e+00
       -2 -1    0    0    0  501 -0.0000000000e+00 -0.0000000000e+00 -5.2821906168e+00 5.2821906168e+00 0.0000000000e+00 0.0000e+00 1.0000e+00
      -24  2    1    2    0    0 +0.0000000000e+00 +0.0000000000e+00 +2.9672060860e+02 3.0728498983e+02 7.9880820032e+01 0.0000e+00 0.0000e+00
       13  1    3    3    0    0 -3.5399530458e+01 +1.7522036255e+01 +1.7114677977e+02 1.7564557705e+02 0.0000000000e+00 0.0000e+00 -1.0000e+00
      -14  1    3    3    0    0 +3.5399530458e+01 -1.7522036255e+01 +1.2557382883e+02 1.3163941278e+02 0.0000000000e+00 0.0000e+00 1.0000e+00
<mgrwt>
<rscale>  0 0.79880820E+02</rscale>
<asrwt>0</asrwt>
<pdfrwt beam="1">  1        1 0.46461956E-01 0.79880820E+02</pdfrwt>
<pdfrwt beam="2">  1       -2 0.81264495E-03 0.79880820E+02</pdfrwt>
<totfact> 0.18135581E+05</totfact>
</mgrwt>
</event>
<event>
 5      1 +7.5707000e+03 7.88127400e+01 7.54677100e-03 1.33245500e-01
        1 -1    0    0  501    0 +0.0000000000e+00 +0.0000000000e+00 +6.7697263927e+00 6.7697263927e+00 0.0000000000e+00 0.0000e+00 -1.0000e+00
       -2 -1    0    0    0  501 -0.0000000000e+00 -0.0000000000e+00 -2.2938328830e+02 2.2938328830e+02 0.0000000000e+00 0.0000e+00 1.0000e+00
      -24  2    1    2    0    0 +0.0000000000e+00 +0.0000000000e+00 -2.2261356190e+02 2.3615301469e+02 7.8812742645e+01 0.0000e+00 0.0000e+00
       11  1    3    3    0    0 +1.3166537718e+01 +7.3072212909e+00 -2.1912303824e+00 1.5216921142e+01 0.0000000000e+00 0.0000e+00 -1.0000e+00
      -12  1    3    3    0    0 -1.3166537718e+01 -7.3072212909e+00 -2.2042233152e+02 2.2093609355e+02 0.0000000000e+00 0.0000e+00 1.0000e+00
<mgrwt>
<rscale>  0 0.78812743E+02</rscale>
<asrwt>0</asrwt>
<pdfrwt beam="1">  1        1 0.10414966E-02 0.78812743E+02</pdfrwt>
<pdfrwt beam="2">  1       -2 0.35289729E-01 0.78812743E+02</pdfrwt>
<totfact> 0.83401293E+04</totfact>
</mgrwt>
</event>
<event>
 5      1 +7.5707000e+03 7.42854200e+01 7.54677100e-03 1.34609800e-01
        3 -1    0    0  501    0 +0.0000000000e+00 +0.0000000000e+00 +4.4741535918e+01 4.4741535918e+01 0.0000000000e+00 0.0000e+00 -1.0000e+00
       -4 -1    0    0    0  501 -0.0000000000e+00 -0.0000000000e+00 -3.0834452925e+01 3.0834452925e+01 0.0000000000e+00 0.0000e+00 1.0000e+00
      -24  2    1    2    0    0 +0.0000000000e+00 +0.0000000000e+00 +1.3907082993e+01 7.5575988843e+01 7.4285416686e+01 0.0000e+00 0.0000e+00
       11  1    3    3    0    0 -1.5624674717e+01 +3.2959415022e+01 -1.7731429778e-01 3.6475813068e+01 0.0000000000e+00 0.0000e+00 -1.0000e+00
      -12  1    3    3    0    0 +1.5624674717e+01 -3.2959415022e+01 +1.4084397291e+01 3.9100175775e+01 0.0000000000e+00 0.0000e+00 1.0000e+00
<mgrwt>
<rscale>  0 0.74285417E+02</rscale>
<asrwt>0</asrwt>
<pdfrwt beam="1">  1        3 0.68833132E-02 0.74285417E+02</pdfrwt>
<pdfrwt beam="2">  1       -4 0.47437620E-02 0.74285417E+02</pdfrwt>
<totfact> 0.55854524E+04</totfact>
</mgrwt>
</event>
<event>
 5      1 +7.5707000e+03 8.08086000e+01 7.54677100e-03 1.32677200e-01
       -2 -1    0    0    0  501 -0.0000000000e+00 +0.0000000000e+00 +1.6303288927e+01 1.6303288927e+01 0.0000000000e+00 0.0000e+00 1.0000e+00
        1 -1    0    0  501    0 +0.0000000000e+00 -0.0000000000e+00 -1.0013363026e+02 1.0013363026e+02 0.0000000000e+00 0.0000e+00 -1.0000e+00
      -24  2    1    2    0    0 +0.0000000000e+00 +0.0000000000e+00 -8.3830341333e+01 1.1643691919e+02 8.0808601161e+01 0.0000e+00 0.0000e+00
       13  1    3    3    0    0 -1.4101947953e+01 +2.5313766995e+01 -8.2487525256e+01 8.7429077305e+01 0.0000000000e+00 0.0000e+00 -1.0000e+00
      -14  1    3    3    0    0 +1.4101947953e+01 -2.5313766995e+01 -1.3428160772e+00 2.9007841881e+01 0.0000000000e+00 0.0000e+00 1.0000e+00
<mgrwt>
<rscale>  0 0.80808601E+02</rscale>
<asrwt>0</asrwt>
<pdfrwt beam="1">  1        1 0.15405174E-01 0.80808601E+02</pdfrwt>
<pdfrwt beam="2">  1       -2 0.25081983E-02 0.80808601E+02</pdfrwt>
<totfact> 0.14307955E+05</totfact>
</mgrwt>
</event>
<event>
 5      1 +7.5707000e+03 8.18841200e+01 7.54677100e-03 1.32378800e-01
       -2 -1    0    0    0  501 -0.0000000000e+00 +0.0000000000e+00 +4.2829351883e+00 4.2829351883e+00 0.0000000000e+00 0.0000e+00 1.0000e+00
        1 -1    0    0  501    0 +0.0000000000e+00 -0.0000000000e+00 -3.9137935582e+02 3.9137935582e+02 0.0000000000e+00 0.0000e+00 -1.0000e+00
      -24  2    1    2    0    0 +0.0000000000e+00 +0.0000000000e+00 -3.8709642063e+02 3.9566229101e+02 8.1884123371e+01 0.0000e+00 0.0000e+00
       11  1    3    3    0    0 +4.0649013433e+01 +4.7233651707e+00 -1.9966012487e+02 2.0381074048e+02 0.0000000000e+00 0.0000e+00 -1.0000e+00
      -12  1    3    3    0    0 -4.0649013433e+01 -4.7233651707e+00 -1.8743629577e+02 1.9185155053e+02 0.0000000000e+00 0.0000e+00 1.0000e+00
<mgrwt>
<rscale>  0 0.81884123E+02</rscale>
<asrwt>0</asrwt>
<pdfrwt beam="1">  1        1 0.60212207E-01 0.81884123E+02</pdfrwt>
<pdfrwt beam="2">  1       -2 0.65891312E-03 0.81884123E+02</pdfrwt>
<totfact> 0.17801363E+05</totfact>
</mgrwt>
</event>
<event>
 5      1 +7.5707000e+03 7.95328900e+01 7.54677100e-03 1.33038200e-01
       -2 -1    0    0    0  501 -0.0000000000e+00 +0.0000000000e+00 +3.4775546643e+01 3.4775546643e+01 0.0000000000e+00 0.0000e+00 1.0000e+00
        1 -1    0    0  501    0 +0.0000000000e+00 -0.0000000000e+00 -4.5473625467e+01 4.5473625467e+01 0.0000000000e+00 0.0000e+00 -1.0000e+00
      -24  2    1    2    0    0 +0.0000000000e+00 +0.0000000000e+00 -1.0698078824e+01 8.0249172110e+01 7.9532890893e+01 0.0000e+00 0.0000e+00
       11  1    3    3    0    0 -6.9200389950e+00 +3.8967589187e+01 -1.4398423613e+00 3.9603447991e+01 0.0000000000e+00 0.0000e+00 -1.0000e+00
      -12  1    3    3    0    0 +6.9200389950e+00 -3.8967589187e+01 -9.2582364631e+00 4.0645724119e+01 0.0000000000e+00 0.0000e+00 1.0000e+00
<mgrwt>
<rscale>  0 0.79532891E+02</rscale>
<asrwt>0</asrwt>
<pdfrwt beam="1">  1        1 0.69959424E-02 0.79532891E+02</pdfrwt>
<pdfrwt beam="2">  1       -2 0.53500841E-02 0.79532891E+02</pdfrwt>
<totfact> 0.13175263E+05</totfact>
</mgrwt>
</event>
<event>
 5      1 +7.5707000e+03 8.03908100e+01 7.54677100e-03 1.32794600e-01
       -4 -1    0    0    0  501 -0.0000000000e+00 +0.0000000000e+00 +4.3028969381e+01 4.3028969381e+01 0.0000000000e+00 0.0000e+00 1.0000e+00
        3 -1    0    0  501    0 +0.0000000000e+00 -0.0000000000e+00 -3.7548440712e+01 3.7548440712e+01 0.0000000000e+00 0.0000e+00 -1.0000e+00
      -24  2    1    2    0    0 +0.0000000000e+00 +0.0000000000e+00 +5.4805286693e+00 8.0577410094e+01 8.0390813050e+01 0.0000e+00 0.0000e+00
       13  1    3    3    0    0 -3.1074399540e+01 +2.4939963942e+01 -2.5683104690e+00 3.9927638634e+01 0.0000000000e+00 0.0000e+00 -1.0000e+00
      -14  1    3    3    0    0 +3.1074399540e+01 -2.4939963942e+01 +8.0488391383e+00 4.0649771459e+01 0.0000000000e+00 0.0000e+00 1.0000e+00
<mgrwt>
<rscale>  0 0.80390813E+02</rscale>
<asrwt>0</asrwt>
<pdfrwt beam="1">  1        3 0.57766832E-02 0.80390813E+02</pdfrwt>
<pdfrwt beam="2">  1       -4 0.66198414E-02 0.80390813E+02</pdfrwt>
<totfact> 0.44388982E+04</totfact>
</mgrwt>
</event>
<event>
 5      1 +7.5707000e+03 7.87138600e+01 7.54677100e-03 1.33274100e-01
        1 -1    0    0  501    0 +0.0000000000e+00 +0.0000000000e+00 +6.3536686306e+01 6.3536686306e+01 0.0000000000e+00 0.0000e+00 -1.0000e+00
       -2 -1    0    0    0  501 -0.0000000000e+00 -0.0000000000e+00 -2.4379113736e+01 2.4379113736e+01 0.0000000000e+00 0.0000e+00 1.0000e+00
      -24  2    1    2    0    0 +0.0000000000e+00 +0.0000000000e+00 +3.9157572571e+01 8.7915800042e+01 7.8713864137e+01 0.0000e+00 0.0000e+00
       13  1    3    3    0    0 -2.4803548010e+01 -9.7157957265e+00 +5.1937306274e+01 5.8370338902e+01 0.0000000000e+00 0.0000e+00 -1.0000e+00
      -14  1    3    3    0    0 +2.4803548010e+01 +9.7157957265e+00 -1.2779733703e+01 2.9545461140e+01 0.0000000000e+00 0.0000e+00 1.0000e+00
<mgrwt>
<rscale>  0 0.78713864E+02</rscale>
<asrwt>0</asrwt>
<pdfrwt beam="1">  1        1 0.97748748E-02 0.78713864E+02</pdfrwt>
<pdfrwt beam="2">  1       -2 0.37506329E-02 0.78713864E+02</pdfrwt>
<totfact> 0.14282203E+05</totfact>
</mgrwt>
</event>
<event>
 5      1 +7.5707000e+03 7.96200500e+01 7.54677100e-03 1.33013300e-01
        1 -1    0    0  501    0 +0.0000000000e+00 +0.0000000000e+00 +2.4860591218e+01 2.4860591218e+01 0.0000000000e+00 0.0000e+00 -1.0000e+00
       -2 -1    0    0    0  501 -0.0000000000e+00 -0.0000000000e+00 -6.3749015538e+01 6.3749015538e+01 0.0000000000e+00 0.0000e+00 1.0000e+00
      -24  2    1    2    0    0 +0.0000000000e+00 +0.0000000000e+00 -3.8888424319e+01 8.8609606756e+01 7.9620053149e+01 0.0000e+00 0.0000e+00
       13  1    3    3    0    0 +1.1210383692e+01 -3.6150737564e+01 -5.7103212636e+00 3.8277360121e+01 0.0000000000e+00 0.0000e+00 -1.0000e+00
      -14  1    3    3    0    0 -1.1210383692e+01 +3.6150737564e+01 -3.3178103056e+01 5.0332246635e+01 0.0000000000e+00 0.0000e+00 1.0000e+00
<mgrwt>
<rscale>  0 0.79620053E+02</rscale>
<asrwt>0</asrwt>
<pdfrwt beam="1">  1        1 0.38247064E-02 0.79620053E+02</pdfrwt>
<pdfrwt beam="2">  1       -2 0.98075408E-02 0.79620053E+02</pdfrwt>
<totfact> 0.11846037E+05</totfact>
</mgrwt>
</event>
<event>
 5      1 +7.5707000e+03 8.12916700e+01 7.54677100e-03 1.32542500e-01
        1 -1    0    0  501    0 +0.0000000000e+00 +0.0000000000e+00 +3.1055012575e+02 3.1055012575e+02 0.0000000000e+00 0.0000e+00 -1.0000e+00
       -2 -1    0    0    0  501 -0.0000000000e+00 -0.0000000000e+00 -5.3198622714e+00 5.3198622714e+00 0.0000000000e+00 0.0000e+00 1.0000e+00
      -24  2    1    2    0    0 +0.0000000000e+00 +0.0000000000e+00 +3.0523026348e+02 3.1586998802e+02 8.1291669865e+01 0.0000e+00 0.0000e+00
       13  1    3    3    0    0 -3.9481437604e+01 -7.7369171671e+00 +1.3014549408e+02 1.3622222077e+02 0.0000000000e+00 0.0000e+00 -1.0000e+00
      -14  1    3    3    0    0 +3.9481437604e+01 +7.7369171671e+00 +1.7508476940e+02 1.7964776725e+02 0.0000000000e+00 0.0000e+00 1.0000e+00
<mgrwt>
<rscale>  0 0.81291670E+02</rscale>
<asrwt>0</asrwt>
<pdfrwt beam="1">  1        1 0.47776928E-01 0.81291670E+02</pdfrwt>
<pdfrwt beam="2">  1       -2 0.81844059E-03 0.81291670E+02</pdfrwt>
<totfact> 0.17408949E+05</totfact>
</mgrwt>
</event>
<event>
 5      1 +7.5707000e+03 7.10757500e+01 7.54677100e-03 1.35647300e-01
        1 -1    0    0  501    0 +0.0000000000e+00 +0.0000000000e+00 +1.7121291772e+00 1.7121291772e+00 0.0000000000e+00 0.0000e+00 -1.0000e+00
       -2 -1    0    0    0  501 -0.0000000000e+00 -0.0000000000e+00 -7.3764326344e+02 7.3764326344e+02 0.0000000000e+00 0.0000e+00 1.0000e+00
      -24  2    1    2    0    0 +0.0000000000e+00 +0.0000000000e+00 -7.3593113427e+02 7.3935539262e+02 7.1075749836e+01 0.0000e+00 0.0000e+00
       11  1    3    3    0    0 +8.5377136689e+00 -2.9083118175e+01 -1.7496881795e+02 1.7757479431e+02 0.0000000000e+00 0.0000e+00 -1.0000e+00
      -12  1    3    3    0    0 -8.5377136689e+00 +2.9083118175e+01 -5.6096231631e+02 5.6178059831e+02 0.0000000000e+00 0.0000e+00 1.0000e+00
<mgrwt>
<rscale>  0 0.71075750E+02</rscale>
<asrwt>0</asrwt>
<pdfrwt beam="1">  1        1 0.26340429E-03 0.71075750E+02</pdfrwt>
<pdfrwt beam="2">  1       -2 0.11348367E+00 0.71075750E+02</pdfrwt>
<totfact> 0.48771774E+04</totfact>
</mgrwt>
</event>
<event>
 5      1 +7.5707000e+03 8.04196600e+01 7.54677100e-03 1.32786500e-01
       -4 -1    0    0    0  501 -0.0000000000e+00 +0.0000000000e+00 +4.9279169500e+00 4.9279169500e+00 0.0000000000e+00 0.0000e+00 1.0000e+00
        3 -1    0    0  501    0 +0.0000000000e+00 -0.0000000000e+00 -3.2809615034e+02 3.2809615034e+02 0.0000000000e+00 0.0000e+00 -1.0000e+00
      -24  2    1    2    0    0 +0.0000000000e+00 +0.0000000000e+00 -3.2316823339e+02 3.3302406729e+02 8.0419663777e+01 0.0000e+00 0.0000e+00
       13  1    3    3    0    0 +3.1888019625e+01 -2.4483613487e+01 -1.6461999687e+02 1.6945806707e+02 0.0000000000e+00 0.0000e+00 -1.0000e+00
      -14  1    3    3    0    0 -3.1888019625e+01 +2.4483613487e+01 -1.5854823652e+02 1.6356600022e+02 0.0000000000e+00 0.0000e+00 1.0000e+00
<mgrwt>
<rscale>  0 0.80419664E+02</rscale>
<asrwt>0</asrwt>
<pdfrwt beam="1">  1        3 0.50476344E-01 0.80419664E+02</pdfrwt>
<pdfrwt beam="2">  1       -4 0.75814087E-03 0.80419664E+02</pdfrwt>
<totfact> 0.28988084E+04</totfact>
</mgrwt>
</event>
<event>
 5      1 +7.5707000e+03 8.06015800e+01 7.54677100e-03 1.32735300e-01
        1 -1    0    0  501    0 +0.0000000000e+00 +0.0000000000e+00 +3.5837826245e+01 3.5837826245e+01 0.0000000000e+00 0.0000e+00 -1.0000e+00
       -2 -1    0    0    0  501 -0.0000000000e+00 -0.0000000000e+00 -4.5319540115e+01 4.5319540115e+01 0.0000000000e+00 0.0000e+00 1.0000e+00
      -24  2    1    2    0    0 +0.0000000000e+00 +0.0000000000e+00 -9.4817138695e+00 8.1157366360e+01 8.0601583214e+01 0.0000e+00 0.0000e+00
       11  1    3    3    0    0 +3.0228836910e+01 -2.2105404267e+01 +1.0252161851e+01 3.8827030551e+01 0.0000000000e+00 0.0000e+00 -1.0000e+00
      -12  1    3    3    0    0 -3.0228836910e+01 +2.2105404267e+01 -1.9733875720e+01 4.2330335809e+01 0.0000000000e+00 0.0000e+00 1.0000e+00
<mgrwt>
<rscale>  0 0.80601583E+02</rscale>
<asrwt>0</asrwt>
<pdfrwt beam="1">  1        1 0.55135118E-02 0.80601583E+02</pdfrwt>
<pdfrwt beam="2">  1       -2 0.69722369E-02 0.80601583E+02</pdfrwt>
<totfact> 0.12207342E+05</totfact>
</mgrwt>
</event>
<event>
 5      1 +7.5707000e+03 8.05824900e+01 7.54677100e-03 1.32740600e-01
       -2 -1    0    0    0  501 -0.0000000000e+00 +0.0000000000e+00 +5.5457846767e+01 5.5457846767e+01 0.0000000000e+00 0.0000e+00 1.0000e+00
        1 -1    0    0  501    0 +0.0000000000e+00 -0.0000000000e+00 -2.9272404413e+01 2.9272404413e+01 0.0000000000e+00 0.0000e+00 -1.0000e+00
      -24  2    1    2    0    0 +0.0000000000e+00 +0.0000000000e+00 +2.6185442354e+01 8.4730251181e+01 8.0582492353e+01 0.0000e+00 0.0000e+00
       13  1    3    3    0    0 +2.4613639463e+00 -3.1829896806e+01 -1.2752625589e+01 3.4377755927e+01 0.0000000000e+00 0.0000e+00 -1.0000e+00
      -14  1    3    3    0    0 -2.4613639463e+00 +3.1829896806e+01 +3.8938067943e+01 5.0352495254e+01 0.0000000000e+00 0.0000e+00 1.0000e+00
<mgrwt>
<rscale>  0 0.80582492E+02</rscale>
<asrwt>0</asrwt>
<pdfrwt beam="1">  1        1 0.45034469E-02 0.80582492E+02</pdfrwt>
<pdfrwt beam="2">  1       -2 0.85319764E-02 0.80582492E+02</pdfrwt>
<totfact> 0.11792931E+05</totfact>
</mgrwt>
</event>
<event>
 5      1 +7.5707000e+03 8.12229700e+01 7.54677100e-03 1.32561600e-01
        1 -1    0    0  501    0 +0.0000000000e+00 +0.0000000000e+00 +1.6450086657e+02 1.6450086657e+02 0.0000000000e+00 0.0000e+00 -1.0000e+00
       -2 -1    0    0    0  501 -0.0000000000e+00 -0.0000000000e+00 -1.0026042741e+01 1.0026042741e+01 0.0000000000e+00 0.0000e+00 1.0000e+00
      -24  2    1    2    0    0 +0.0000000000e+00 +0.0000000000e+00 +1.5447482383e+02 1.7452690931e+02 8.1222970131e+01 0.0000e+00 0.0000e+00
       11  1    3    3    0    0 -2.4852114452e+01 -3.2115186087e+01 +7.8374313993e+01 8.8269733567e+01 0.0000000000e+00 0.0000e+00 -1.0000e+00
      -12  1    3    3    0    0 +2.4852114452e+01 +3.2115186087e+01 +7.6100509833e+01 8.6257175742e+01 0.0000000000e+00 0.0000e+00 1.0000e+00
<mgrwt>
<rscale>  0 0.81222970E+02</rscale>
<asrwt>0</asrwt>
<pdfrwt beam="1">  1        1 0.25307824E-01 0.81222970E+02</pdfrwt>
<pdfrwt beam="2">  1       -2 0.15424682E-02 0.81222970E+02</pdfrwt>
<totfact> 0.15424729E+05</totfact>
</mgrwt>
</event>
<event>
 5      1 +7.5707000e+03 8.18484700e+01 7.54677100e-03 1.32388600e-01
        1 -1    0    0  501    0 +0.0000000000e+00 +0.0000000000e+00 +2.3813937138e+02 2.3813937138e+02 0.0000000000e+00 0.0000e+00 -1.0000e+00
       -2 -1    0    0    0  501 -0.0000000000e+00 -0.0000000000e+00 -7.0328272651e+00 7.0328272651e+00 0.0000000000e+00 0.0000e+00 1.0000e+00
      -24  2    1    2    0    0 +0.0000000000e+00 +0.0000000000e+00 +2.3110654412e+02 2.4517219865e+02 8.1848471310e+01 0.0000e+00 0.0000e+00
       11  1    3    3    0    0 +3.1871227976e+01 -1.9802494571e+01 +1.6448808488e+02 1.6871349689e+02 0.0000000000e+00 0.0000e+00 -1.0000e+00
      -12  1    3    3    0    0 -3.1871227976e+01 +1.9802494571e+01 +6.6618459233e+01 7.6458701758e+01 0.0000000000e+00 0.0000e+00 1.0000e+00
<mgrwt>
<rscale>  0 0.81848471E+02</rscale>
<asrwt>0</asrwt>
<pdfrwt beam="1">  1        1 0.36636820E-01 0.81848471E+02</pdfrwt>
<pdfrwt beam="2">  1       -2 0.10819736E-02 0.81848471E+02</pdfrwt>
<totfact> 0.16237859E+05</totfact>
</mgrwt>
</event>
<event>
 5      1 +7.5707000e+03 6.79140900e+01 7.54677100e-03 1.36733300e-01
        1 -1    0    0  501    0 +0.0000000000e+00 +0.0000000000e+00 +4.9964197525e+01 4.9964197525e+01 0.0000000000e+00 0.0000e+00 -1.0000e+00
       -2 -1    0    0    0  501 -0.0000000000e+00 -0.0000000000e+00 -2.3078140023e+01 2.3078140023e+01 0.0000000000e+00 0.0000e+00 1.0000e+00
      -24  2    1    2    0    0 +0.0000000000e+00 +0.0000000000e+00 +2.6886057502e+01 7.3042337548e+01 6.7914085332e+01 0.0000e+00 0.0000e+00
       11  1    3    3    0    0 -4.5855984156e+00 -3.3360113006e+01 +8.7357922333e+00 3.4788488305e+01 0.0000000000e+00 0.0000e+00 -1.0000e+00
      -12  1    3    3    0    0 +4.5855984156e+00 +3.3360113006e+01 +1.8150265269e+01 3.8253849243e+01 0.0000000000e+00 0.0000e+00 1.0000e+00
<mgrwt>
<rscale>  0 0.67914085E+02</rscale>
<asrwt>0</asrwt>
<pdfrwt beam="1">  1        1 0.76867996E-02 0.67914085E+02</pdfrwt>
<pdfrwt beam="2">  1       -2 0.35504831E-02 0.67914085E+02</pdfrwt>
<totfact> 0.20606929E+05</totfact>
</mgrwt>
</event>
<event>
 4      1 +7.5707000e+03 1.46087700e+02 7.54677100e-03 1.20536400e-01
        1 -1    0    0  501    0 +0.0000000000e+00 +0.0000000000e+00 +1.4446522018e+02 1.4446522018e+02 0.0000000000e+00 0.0000e+00 -1.0000e+00
       -2 -1    0    0    0  501 -0.0000000000e+00 -0.0000000000e+00 -3.6932119106e+01 3.6932119106e+01 0.0000000000e+00 0.0000e+00 1.0000e+00
       11  1    1    2    0    0 -7.1904706678e+00 +6.3949975569e+01 +9.6674554709e+01 1.1613471390e+02 0.0000000000e+00 0.0000e+00 -1.0000e+00
      -12  1    1    2    0    0 +7.1904706678e+00 -6.3949975569e+01 +1.0858546366e+01 6.5262625391e+01 0.0000000000e+00 0.0000e+00 1.0000e+00
<mgrwt>
<rscale>  0 0.14608774E+03</rscale>
<asrwt>0</asrwt>
<pdfrwt beam="1">  1        1 0.22225418E-01 0.14608774E+03</pdfrwt>
<pdfrwt beam="2">  1       -2 0.56818646E-02 0.14608774E+03</pdfrwt>
<totfact> 0.29225594E+04</totfact>
</mgrwt>
</event>
<event>
 5      1 +7.5707000e+03 7.94755400e+01 7.54677100e-03 1.33054600e-01
       -2 -1    0    0    0  501 -0.0000000000e+00 +0.0000000000e+00 +1.9669919478e+01 1.9669919478e+01 0.0000000000e+00 0.0000e+00 1.0000e+00
        1 -1    0    0  501    0 +0.0000000000e+00 -0.0000000000e+00 -8.0279445688e+01 8.0279445688e+01 0.0000000000e+00 0.0000e+00 -1.0000e+00
      -24  2    1    2    0    0 +0.0000000000e+00 +0.0000000000e+00 -6.0609526210e+01 9.9949365166e+01 7.9475536675e+01 0.0000e+00 0.0000e+00
       11  1    3    3    0    0 -1.5620415498e+01 -2.8028561191e+01 -5.9784764427e+01 6.7851423569e+01 0.0000000000e+00 0.0000e+00 -1.0000e+00
      -12  1    3    3    0    0 +1.5620415498e+01 +2.8028561191e+01 -8.2476178349e-01 3.2097941597e+01 0.0000000000e+00 0.0000e+00 1.0000e+00
<mgrwt>
<rscale>  0 0.79475537E+02</rscale>
<asrwt>0</asrwt>
<pdfrwt beam="1">  1        1 0.12350684E-01 0.79475537E+02</pdfrwt>
<pdfrwt beam="2">  1       -2 0.30261414E-02 0.79475537E+02</pdfrwt>
<totfact> 0.14433496E+05</totfact>
</mgrwt>
</event>
<event>
 5      1 +7.5707000e+03 8.17517000e+01 7.54677100e-03 1.32415300e-01
        1 -1    0    0  501    0 +0.0000000000e+00 +0.0000000000e+00 +1.1986027272e+02 1.1986027272e+02 0.0000000000e+00 0.0000e+00 -1.0000e+00
       -2 -1    0    0    0  501 -0.0000000000e+00 -0.0000000000e+00 -1.3939857148e+01 1.3939857148e+01 0.0000000000e+00 0.0000e+00 1.0000e+00
      -24  2    1    2    0    0 +0.0000000000e+00 +0.0000000000e+00 +1.0592041557e+02 1.3380012987e+02 8.1751699174e+01 0.0000e+00 0.0000e+00
       11  1    3    3    0    0 +2.7688724153e+01 +1.5241919455e+01 +9.5382784836e+01 1.0048311896e+02 0.0000000000e+00 0.0000e+00 -1.0000e+00
      -12  1    3    3    0    0 -2.7688724153e+01 -1.5241919455e+01 +1.0537630733e+01 3.3317010900e+01 0.0000000000e+00 0.0000e+00 1.0000e+00
<mgrwt>
<rscale>  0 0.81751699E+02</rscale>
<asrwt>0</asrwt>
<pdfrwt beam="1">  1        1 0.18440041E-01 0.81751699E+02</pdfrwt>
<pdfrwt beam="2">  1       -2 0.21445935E-02 0.81751699E+02</pdfrwt>
<totfact> 0.14304534E+05</totfact>
</mgrwt>
</event>
<event>
 4      1 +7.5707000e+03 4.94863400e+01 7.54677100e-03 1.44813200e-01
       -4 -1    0    0    0  501 -0.0000000000e+00 +0.0000000000e+00 +5.5278286910e+00 5.5278286910e+00 0.0000000000e+00 0.0000e+00 1.0000e+00
        3 -1    0    0  501    0 +0.0000000000e+00 -0.0000000000e+00 -1.1075315529e+02 1.1075315529e+02 0.0000000000e+00 0.0000e+00 -1.0000e+00
       11  1    1    2    0    0 -1.4010791097e+01 -1.7729398857e+01 -7.6296396652e+01 7.9572444935e+01 0.0000000000e+00 0.0000e+00 -1.0000e+00
      -12  1    1    2    0    0 +1.4010791097e+01 +1.7729398857e+01 -2.8928929950e+01 3.6708539048e+01 0.0000000000e+00 0.0000e+00 1.0000e+00
<mgrwt>
<rscale>  0 0.49486340E+02</rscale>
<asrwt>0</asrwt>
<pdfrwt beam="1">  1        3 0.17038948E-01 0.49486340E+02</pdfrwt>
<pdfrwt beam="2">  1       -4 0.85043512E-03 0.49486340E+02</pdfrwt>
<totfact> 0.14800620E+05</totfact>
</mgrwt>
</event>
<event>
 5      1 +7.5707000e+03 8.09844300e+01 7.54677100e-03 1.32628100e-01
       -2 -1    0    0    0  501 -0.0000000000e+00 +0.0000000000e+00 +5.8546156606e+00 5.8546156606e+00 0.0000000000e+00 0.0000e+00 1.0000e+00
        1 -1    0    0  501    0 +0.0000000000e+00 -0.0000000000e+00 -2.8005584513e+02 2.8005584513e+02 0.0000000000e+00 0.0000e+00 -1.0000e+00
      -24  2    1    2    0    0 +0.0000000000e+00 +0.0000000000e+00 -2.7420122947e+02 2.8591046079e+02 8.0984426571e+01 0.0000e+00 0.0000e+00
       11  1    3    3    0    0 +2.3099978569e+01 -3.0704848924e+01 -1.8220498798e+02 1.8621239057e+02 0.0000000000e+00 0.0000e+00 -1.0000e+00
      -12  1    3    3    0    0 -2.3099978569e+01 +3.0704848924e+01 -9.1996241492e+01 9.9698070222e+01 0.0000000000e+00 0.0000e+00 1.0000e+00
<mgrwt>
<rscale>  0 0.80984427E+02</rscale>
<asrwt>0</asrwt>
<pdfrwt beam="1">  1        1 0.43085531E-01 0.80984427E+02</pdfrwt>
<pdfrwt beam="2">  1       -2 0.90070976E-03 0.80984427E+02</pdfrwt>
<totfact> 0.17238926E+05</totfact>
</mgrwt>
</event>
<event>
 5      1 +7.5707000e+03 8.07594600e+01 7.54677100e-03 1.32691000e-01
       -2 -1    0    0    0  501 -0.0000000000e+00 +0.0000000000e+00 +9.6080968860e+01 9.6080968860e+01 0.0000000000e+00 0.0000e+00 1.0000e+00
        1 -1    0    0  501    0 +0.0000000000e+00 -0.0000000000e+00 -1.6970296388e+01 1.6970296388e+01 0.0000000000e+00 0.0000e+00 -1.0000e+00
      -24  2    1    2    0    0 +0.0000000000e+00 +0.0000000000e+00 +7.9110672472e+01 1.1305126525e+02 8.0759458116e+01 0.0000e+00 0.0000e+00
       11  1    3    3    0    0 -2.7054276647e+01 -2.2507033958e+01 +1.1838906761e+01 3.7130313435e+01 0.0000000000e+00 0.0000e+00 -1.0000e+00
      -12  1    3    3    0    0 +2.7054276647e+01 +2.2507033958e+01 +6.7271765710e+01 7.5920951813e+01 0.0000000000e+00 0.0000e+00 1.0000e+00
<mgrwt>
<rscale>  0 0.80759458E+02</rscale>
<asrwt>0</asrwt>
<pdfrwt beam="1">  1        1 0.26108149E-02 0.80759458E+02</pdfrwt>
<pdfrwt beam="2">  1       -2 0.14781687E-01 0.80759458E+02</pdfrwt>
<totfact> 0.10461388E+05</totfact>
</mgrwt>
</event>
<event>
 5      1 +7.5707000e+03 7.98490000e+01 7.54677100e-03 1.32948100e-01
       -2 -1    0    0    0  501 -0.0000000000e+00 +0.0000000000e+00 +9.5110502880e+00 9.5110502880e+00 0.0000000000e+00 0.0000e+00 1.0000e+00
        1 -1    0    0  501    0 +0.0000000000e+00 -0.0000000000e+00 -1.6759090561e+02 1.6759090561e+02 0.0000000000e+00 0.0000e+00 -1.0000e+00
      -24  2    1    2    0    0 +0.0000000000e+00 +0.0000000000e+00 -1.5807985532e+02 1.7710195589e+02 7.9848995761e+01 0.0000e+00 0.0000e+00
       13  1    3    3    0    0 -3.5563131384e+00 +3.2920384852e+01 -1.2851420216e+02 1.3271133810e+02 0.0000000000e+00 0.0000e+00 -1.0000e+00
      -14  1    3    3    0    0 +3.5563131384e+00 -3.2920384852e+01 -2.9565653156e+01 4.4390617798e+01 0.0000000000e+00 0.0000e+00 1.0000e+00
<mgrwt>
<rscale>  0 0.79848996E+02</rscale>
<asrwt>0</asrwt>
<pdfrwt beam="1">  1        1 0.25783215E-01 0.79848996E+02</pdfrwt>
<pdfrwt beam="2">  1       -2 0.14632386E-02 0.79848996E+02</pdfrwt>
<totfact> 0.16199739E+05</totfact>
</mgrwt>
</event>
<event>
 5      1 +7.5707000e+03 8.10200000e+01 7.54677100e-03 1.32618200e-01
        3 -1    0    0  501    0 +0.0000000000e+00 +0.0000000000e+00 +9.0246898795e+01 9.0246898795e+01 0.0000000000e+00 0.0000e+00 -1.0000e+00
       -4 -1    0    0    0  501 -0.0000000000e+00 -0.0000000000e+00 -1.8184114867e+01 1.8184114867e+01 0.0000000000e+00 0.0000e+00 1.0000e+00
      -24  2    1    2    0    0 +0.0000000000e+00 +0.0000000000e+00 +7.2062783928e+01 1.0843101366e+02 8.1019996891e+01 0.0000e+00 0.0000e+00
       11  1    3    3    0    0 -2.5706069675e+00 +3.7840840704e+01 +5.5077146408e+01 6.6873233075e+01 0.0000000000e+00 0.0000e+00 -1.0000e+00
      -12  1    3    3    0    0 +2.5706069675e+00 -3.7840840704e+01 +1.6985637520e+01 4.1557780587e+01 0.0000000000e+00 0.0000e+00 1.0000e+00
<mgrwt>
<rscale>  0 0.81019997E+02</rscale>
<asrwt>0</asrwt>
<pdfrwt beam="1">  1        3 0.13884138E-01 0.81019997E+02</pdfrwt>
<pdfrwt beam="2">  1       -4 0.27975562E-02 0.81019997E+02</pdfrwt>
<totfact> 0.41777647E+04</totfact>
</mgrwt>
</event>
<event>
 5      1 +7.5707000e+03 7.97461400e+01 7.54677100e-03 1.32977300e-01
        3 -1    0    0  501    0 +0.0000000000e+00 +0.0000000000e+00 +1.0203251336e+02 1.0203251336e+02 0.0000000000e+00 0.0000e+00 -1.0000e+00
       -4 -1    0    0    0  501 -0.0000000000e+00 -0.0000000000e+00 -1.5581912910e+01 1.5581912910e+01 0.0000000000e+00 0.0000e+00 1.0000e+00
      -24  2    1    2    0    0 +0.0000000000e+00 +0.0000000000e+00 +8.6450600445e+01 1.1761442627e+02 7.9746140649e+01 0.0000e+00 0.0000e+00
       11  1    3    3    0    0 -1.0119009936e+01 -3.3702879812e+01 +7.0879749807e+01 7.9134173417e+01 0.0000000000e+00 0.0000e+00 -1.0000e+00
      -12  1    3    3    0    0 +1.0119009936e+01 +3.3702879812e+01 +1.5570850638e+01 3.8480252849e+01 0.0000000000e+00 0.0000e+00 1.0000e+00
<mgrwt>
<rscale>  0 0.79746141E+02</rscale>
<asrwt>0</asrwt>
<pdfrwt beam="1">  1        3 0.15697309E-01 0.79746141E+02</pdfrwt>
<pdfrwt beam="2">  1       -4 0.23972174E-02 0.79746141E+02</pdfrwt>
<totfact> 0.42861470E+04</totfact>
</mgrwt>
</event>
<event>
 5      1 +7.5707000e+03 7.99030800e+01 7.54677100e-03 1.32932700e-01
        1 -1    0    0  501    0 +0.0000000000e+00 +0.0000000000e+00 +6.3461021946e+00 6.3461021946e+00 0.0000000000e+00 0.0000e+00 -1.0000e+00
       -2 -1    0    0    0  501 -0.0000000000e+00 -0.0000000000e+00 -2.5151276695e+02 2.5151276695e+02 0.0000000000e+00 0.0000e+00 1.0000e+00
      -24  2    1    2    0    0 +0.0000000000e+00 +0.0000000000e+00 -2.4516666476e+02 2.5785886915e+02 7.9903084355e+01 0.0000e+00 0.0000e+00
       11  1    3    3    0    0 +3.2382883748e+01 +3.8754762054e+00 -4.8116979301e+01 5.8128428266e+01 0.0000000000e+00 0.0000e+00 -1.0000e+00
      -12  1    3    3    0    0 -3.2382883748e+01 -3.8754762054e+00 -1.9704968546e+02 1.9973044088e+02 0.0000000000e+00 0.0000e+00 1.0000e+00
<mgrwt>
<rscale>  0 0.79903084E+02</rscale>
<asrwt>0</asrwt>
<pdfrwt beam="1">  1        1 0.97632351E-03 0.79903084E+02</pdfrwt>
<pdfrwt beam="2">  1       -2 0.38694268E-01 0.79903084E+02</pdfrwt>
<totfact> 0.77134282E+04</totfact>
</mgrwt>
</event>
<event>
 5      1 +7.5707000e+03 7.87974600e+01 7.54677100e-03 1.33249900e-01
       -2 -1    0    0    0  501 -0.0000000000e+00 +0.0000000000e+00 +1.3575476300e+01 1.3575476300e+01 0.0000000000e+00 0.0000e+00 1.0000e+00
        1 -1    0    0  501    0 +0.0000000000e+00 -0.0000000000e+00 -1.1434293511e+02 1.1434293511e+02 0.0000000000e+00 0.0000e+00 -1.0000e+00
      -24  2    1    2    0    0 +0.0000000000e+00 +0.0000000000e+00 -1.0076745881e+02 1.2791841141e+02 7.8797456956e+01 0.0000e+00 0.0000e+00
       11  1    3    3    0    0 +2.7819993485e+01 +8.8597337366e+00 -9.3328651908e+01 9.7788977837e+01 0.0000000000e+00 0.0000e+00 -1.0000e+00
      -12  1    3    3    0    0 -2.7819993485e+01 -8.8597337366e+00 -7.4388069021e+00 3.0129433574e+01 0.0000000000e+00 0.0000e+00 1.0000e+00
<mgrwt>
<rscale>  0 0.78797457E+02</rscale>
<asrwt>0</asrwt>
<pdfrwt beam="1">  1        1 0.17591222E-01 0.78797457E+02</pdfrwt>
<pdfrwt beam="2">  1       -2 0.20885347E-02 0.78797457E+02</pdfrwt>
<totfact> 0.15664483E+05</totfact>
</mgrwt>
</event>
<event>
 5      1 +7.5707000e+03 7.82395700e+01 7.54677100e-03 1.33412300e-01
        1 -1    0    0  501    0 +0.0000000000e+00 +0.0000000000e+00 +1.3207850784e+02 1.3207850784e+02 0.0000000000e+00 0.0000e+00 -1.0000e+00
       -2 -1    0    0    0  501 -0.0000000000e+00 -0.0000000000e+00 -1.1586728192e+01 1.1586728192e+01 0.0000000000e+00 0.0000e+00 1.0000e+00
      -24  2    1    2    0    0 +0.0000000000e+00 +0.0000000000e+00 +1.2049177965e+02 1.4366523603e+02 7.8239574906e+01 0.0000e+00 0.0000e+00
       13  1    3    3    0    0 -1.8622774255e+01 +1.0900000520e+01 +1.2016246777e+02 1.2208454609e+02 0.0000000000e+00 0.0000e+00 -1.0000e+00
      -14  1    3    3    0    0 +1.8622774255e+01 -1.0900000520e+01 +3.2931187839e-01 2.1580689947e+01 0.0000000000e+00 0.0000e+00 1.0000e+00
<mgrwt>
<rscale>  0 0.78239575E+02</rscale>
<asrwt>0</asrwt>
<pdfrwt beam="1">  1        1 0.20319769E-01 0.78239575E+02</pdfrwt>
<pdfrwt beam="2">  1       -2 0.17825737E-02 0.78239575E+02</pdfrwt>
<totfact> 0.16373712E+05</totfact>
</mgrwt>
</event>
<event>
 5      1 +7.5707000e+03 8.65472700e+01 7.54677100e-03 1.31143500e-01
       -4 -1    0    0    0  501 -0.0000000000e+00 +0.0000000000e+00 +2.6039885657e+01 2.6039885657e+01 0.0000000000e+00 0.0000e+00 1.0000e+00
        3 -1    0    0  501    0 +0.0000000000e+00 -0.0000000000e+00 -7.1913041225e+01 7.1913041225e+01 0.0000000000e+00 0.0000e+00 -1.0000e+00
      -24  2    1    2    0    0 +0.0000000000e+00 +0.0000000000e+00 -4.5873155568e+01 9.7952926882e+01 8.6547267333e+01 0.0000e+00 0.0000e+00
       13  1    3    3    0    0 +3.0780493490e+00 +2.2994886708e+01 -6.4279568904e+01 6.8338145870e+01 0.0000000000e+00 0.0000e+00 -1.0000e+00
      -14  1    3    3    0    0 -3.0780493490e+00 -2.2994886708e+01 +1.8406413335e+01 2.9614781012e+01 0.0000000000e+00 0.0000e+00 1.0000e+00
<mgrwt>
<rscale>  0 0.86547267E+02</rscale>
<asrwt>0</asrwt>
<pdfrwt beam="1">  1        3 0.11063545E-01 0.86547267E+02</pdfrwt>
<pdfrwt beam="2">  1       -4 0.40061364E-02 0.86547267E+02</pdfrwt>
<totfact> 0.35549587E+04</totfact>
</mgrwt>
</event>
<event>
 5      1 +7.5707000e+03 7.92093700e+01 7.54677100e-03 1.33131000e-01
       -2 -1    0    0    0  501 -0.0000000000e+00 +0.0000000000e+00 +1.3118824877e+02 1.3118824877e+02 0.0000000000e+00 0.0000e+00 1.0000e+00
        1 -1    0    0  501    0 +0.0000000000e+00 -0.0000000000e+00 -1.1956338601e+01 1.1956338601e+01 0.0000000000e+00 0.0000e+00 -1.0000e+00
      -24  2    1    2    0    0 +0.0000000000e+00 +0.0000000000e+00 +1.1923191017e+02 1.4314458737e+02 7.9209371232e+01 0.0000e+00 0.0000e+00
       13  1    3    3    0    0 +3.5535247260e+01 +6.3693112115e+00 +8.9046117414e+01 9.6086070529e+01 0.0000000000e+00 0.0000e+00 -1.0000e+00
      -14  1    3    3    0    0 -3.5535247260e+01 -6.3693112115e+00 +3.0185792754e+01 4.7058516841e+01 0.0000000000e+00 0.0000e+00 1.0000e+00
<mgrwt>
<rscale>  0 0.79209371E+02</rscale>
<asrwt>0</asrwt>
<pdfrwt beam="1">  1        1 0.18394368E-02 0.79209371E+02</pdfrwt>
<pdfrwt beam="2">  1       -2 0.20182807E-01 0.79209371E+02</pdfrwt>
<totfact> 0.10111309E+05</totfact>
</mgrwt>
</event>
<event>
 5      1 +7.5707000e+03 8.04817400e+01 7.54677100e-03 1.32769000e-01
       -2 -1    0    0    0  501 -0.0000000000e+00 +0.0000000000e+00 +6.3341906485e+00 6.3341906485e+00 0.0000000000e+00 0.0000e+00 1.0000e+00
        1 -1    0    0  501    0 +0.0000000000e+00 -0.0000000000e+00 -2.5564871533e+02 2.5564871533e+02 0.0000000000e+00 0.0000e+00 -1.0000e+00
      -24  2    1    2    0    0 +0.0000000000e+00 +0.0000000000e+00 -2.4931452468e+02 2.6198290598e+02 8.0481742077e+01 0.0000e+00 0.0000e+00
       13  1    3    3    0    0 -2.3898521726e+01 +2.3344849977e+01 -1.9767840745e+02 2.0048160547e+02 0.0000000000e+00 0.0000e+00 -1.0000e+00
      -14  1    3    3    0    0 +2.3898521726e+01 -2.3344849977e+01 -5.1636117233e+01 6.1501300507e+01 0.0000000000e+00 0.0000e+00 1.0000e+00
<mgrwt>
<rscale>  0 0.80481742E+02</rscale>
<asrwt>0</asrwt>
<pdfrwt beam="1">  1        1 0.39330561E-01 0.80481742E+02</pdfrwt>
<pdfrwt beam="2">  1       -2 0.97449113E-03 0.80481742E+02</pdfrwt>
<totfact> 0.17215676E+05</totfact>
</mgrwt>
</event>
<event>
 5      1 +7.5707000e+03 7.81011900e+01 7.54677100e-03 1.33452800e-01
       -2 -1    0    0    0  501 -0.0000000000e+00 +0.0000000000e+00 +6.3086605697e+01 6.3086605697e+01 0.0000000000e+00 0.0000e+00 1.0000e+00
        1 -1    0    0  501    0 +0.0000000000e+00 -0.0000000000e+00 -2.4172312214e+01 2.4172312214e+01 0.0000000000e+00 0.0000e+00 -1.0000e+00
      -24  2    1    2    0    0 +0.0000000000e+00 +0.0000000000e+00 +3.8914293483e+01 8.7258917911e+01 7.8101194087e+01 0.0000e+00 0.0000e+00
       11  1    3    3    0    0 -1.8294287725e+01 +1.3592196691e+01 -1.5970930472e+01 2.7829829219e+01 0.0000000000e+00 0.0000e+00 -1.0000e+00
      -12  1    3    3    0    0 +1.8294287725e+01 -1.3592196691e+01 +5.4885223955e+01 5.9429088692e+01 0.0000000000e+00 0.0000e+00 1.0000e+00
<mgrwt>
<rscale>  0 0.78101194E+02</rscale>
<asrwt>0</asrwt>
<pdfrwt beam="1">  1        1 0.37188173E-02 0.78101194E+02</pdfrwt>
<pdfrwt beam="2">  1       -2 0.97056316E-02 0.78101194E+02</pdfrwt>
<totfact> 0.12462961E+05</totfact>
</mgrwt>
</event>
<event>
 5      1 +7.5707000e+03 7.99618500e+01 7.54677100e-03 1.32916000e-01
       -2 -1    0    0    0  501 -0.0000000000e+00 +0.0000000000e+00 +1.0639070933e+02 1.0639070933e+02 0.0000000000e+00 0.0000e+00 1.0000e+00
        1 -1    0    0  501    0 +0.0000000000e+00 -0.0000000000e+00 -1.5024567289e+01 1.5024567289e+01 0.0000000000e+00 0.0000e+00 -1.0000e+00
      -24  2    1    2    0    0 +0.0000000000e+00 +0.0000000000e+00 +9.1366142044e+01 1.2141527662e+02 7.9961850185e+01 0.0000e+00 0.0000e+00
       13  1    3    3    0    0 +1.2691973377e+01 +1.3768954152e+01 -7.9538328428e+00 2.0345361720e+01 0.0000000000e+00 0.0000e+00 -1.0000e+00
      -14  1    3    3    0    0 -1.2691973377e+01 -1.3768954152e+01 +9.9319974886e+01 1.0106991490e+02 0.0000000000e+00 0.0000e+00 1.0000e+00
<mgrwt>
<rscale>  0 0.79961850E+02</rscale>
<asrwt>0</asrwt>
<pdfrwt beam="1">  1        1 0.23114720E-02 0.79961850E+02</pdfrwt>
<pdfrwt beam="2">  1       -2 0.16367801E-01 0.79961850E+02</pdfrwt>
<totfact> 0.10460302E+05</totfact>
</mgrwt>
</event>
<event>
 5      1 +7.5707000e+03 8.16243800e+01 7.54677100e-03 1.32450400e-01
        3 -1    0    0  501    0 +0.0000000000e+00 +0.0000000000e+00 +9.2067605721e+01 9.2067605721e+01 0.0000000000e+00 0.0000e+00 -1.0000e+00
       -4 -1    0    0    0  501 -0.0000000000e+00 -0.0000000000e+00 -1.8091430838e+01 1.8091430838e+01 0.0000000000e+00 0.0000e+00 1.0000e+00
      -24  2    1    2    0    0 +0.0000000000e+00 +0.0000000000e+00 +7.3976174883e+01 1.1015903656e+02 8.1624376782e+01 0.0000e+00 0.0000e+00
       11  1    3    3    0    0 -2.5868858474e+01 +2.9200483449e+01 +5.3170093008e+01 6.5946378694e+01 0.0000000000e+00 0.0000e+00 -1.0000e+00
      -12  1    3    3    0    0 +2.5868858474e+01 -2.9200483449e+01 +2.0806081875e+01 4.4212657864e+01 0.0000000000e+00 0.0000e+00 1.0000e+00
<mgrwt>
<rscale>  0 0.81624377E+02</rscale>
<asrwt>0</asrwt>
<pdfrwt beam="1">  1        3 0.14164247E-01 0.81624377E+02</pdfrwt>
<pdfrwt beam="2">  1       -4 0.27832971E-02 0.81624377E+02</pdfrwt>
<totfact> 0.40814898E+04</totfact>
</mgrwt>
</event>
<event>
 5      1 +7.5707000e+03 8.09422600e+01 7.54677100e-03 1.32639900e-01
        1 -1    0    0  501    0 +0.0000000000e+00 +0.0000000000e+00 +1.8776232951e+02 1.8776232951e+02 0.0000000000e+00 0.0000e+00 -1.0000e+00
       -2 -1    0    0    0  501 -0.0000000000e+00 -0.0000000000e+00 -8.7233277680e+00 8.7233277680e+00 0.0000000000e+00 0.0000e+00 1.0000e+00
      -24  2    1    2    0    0 +0.0000000000e+00 +0.0000000000e+00 +1.7903900174e+02 1.9648565728e+02 8.0942259489e+01 0.0000e+00 0.0000e+00
       13  1    3    3    0    0 +3.3525668973e+01 +8.3072643884e+00 +1.4072327478e+02 1.4490003860e+02 0.0000000000e+00 0.0000e+00 -1.0000e+00
      -14  1    3    3    0    0 -3.3525668973e+01 -8.3072643884e+00 +3.8315726964e+01 5.1585618680e+01 0.0000000000e+00 0.0000e+00 1.0000e+00
<mgrwt>
<rscale>  0 0.80942259E+02</rscale>
<asrwt>0</asrwt>
<pdfrwt beam="1">  1        1 0.28886509E-01 0.80942259E+02</pdfrwt>
<pdfrwt beam="2">  1       -2 0.13420506E-02 0.80942259E+02</pdfrwt>
<totfact> 0.15966351E+05</totfact>
</mgrwt>
</event>
<event>
 5      1 +7.5707000e+03 7.90297900e+01 7.54677100e-03 1.33182800e-01
        3 -1    0    0  501    0 +0.0000000000e+00 +0.0000000000e+00 +1.0817427123e+01 1.0817427123e+01 0.0000000000e+00 0.0000e+00 -1.0000e+00
       -4 -1    0    0    0  501 -0.0000000000e+00 -0.0000000000e+00 -1.4434364473e+02 1.4434364473e+02 0.0000000000e+00 0.0000e+00 1.0000e+00
      -24  2    1    2    0    0 +0.0000000000e+00 +0.0000000000e+00 -1.3352621761e+02 1.5516107185e+02 7.9029788246e+01 0.0000e+00 0.0000e+00
       13  1    3    3    0    0 -8.2844333547e+00 -1.3633971721e+01 +4.2134216876e+00 1.6500604329e+01 0.0000000000e+00 0.0000e+00 -1.0000e+00
      -14  1    3    3    0    0 +8.2844333547e+00 +1.3633971721e+01 -1.3773963930e+02 1.3866046753e+02 0.0000000000e+00 0.0000e+00 1.0000e+00
<mgrwt>
<rscale>  0 0.79029788E+02</rscale>
<asrwt>0</asrwt>
<pdfrwt beam="1">  1        3 0.16642195E-02 0.79029788E+02</pdfrwt>
<pdfrwt beam="2">  1       -4 0.22206715E-01 0.79029788E+02</pdfrwt>
<totfact> 0.38046708E+04</totfact>
</mgrwt>
</event>
<event>
 5      1 +7.5707000e+03 8.46448200e+01 7.54677100e-03 1.31636400e-01
       -4 -1    0    0    0  501 -0.0000000000e+00 +0.0000000000e+00 +1.0856812494e+02 1.0856812494e+02 0.0000000000e+00 0.0000e+00 1.0000e+00
        3 -1    0    0  501    0 +0.0000000000e+00 -0.0000000000e+00 -1.6498271846e+01 1.6498271846e+01 0.0000000000e+00 0.0000e+00 -1.0000e+00
      -24  2    1    2    0    0 +0.0000000000e+00 +0.0000000000e+00 +9.2069853099e+01 1.2506639679e+02 8.4644821203e+01 0.0000e+00 0.0000e+00
       13  1    3    3    0    0 -3.7062213171e+01 -1.1098078544e+01 +7.1387239752e+01 8.1196754812e+01 0.0000000000e+00 0.0000e+00 -1.0000e+00
      -14  1    3    3    0    0 +3.7062213171e+01 +1.1098078544e+01 +2.0682613347e+01 4.3869641979e+01 0.0000000000e+00 0.0000e+00 1.0000e+00
<mgrwt>
<rscale>  0 0.84644821E+02</rscale>
<asrwt>0</asrwt>
<pdfrwt beam="1">  1        3 0.25381957E-02 0.84644821E+02</pdfrwt>
<pdfrwt beam="2">  1       -4 0.16702788E-01 0.84644821E+02</pdfrwt>
<totfact> 0.34081427E+04</totfact>
</mgrwt>
</event>
<event>
 5      1 +7.5707000e+03 8.25491000e+01 7.54677100e-03 1.32196900e-01
        1 -1    0    0  501    0 +0.0000000000e+00 +0.0000000000e+00 +3.7962520819e+02 3.7962520819e+02 0.0000000000e+00 0.0000e+00 -1.0000e+00
       -2 -1    0    0    0  501 -0.0000000000e+00 -0.0000000000e+00 -4.4875532089e+00 4.4875532089e+00 0.0000000000e+00 0.0000e+00 1.0000e+00
      -24  2    1    2    0    0 +0.0000000000e+00 +0.0000000000e+00 +3.7513765498e+02 3.8411276140e+02 8.2549096208e+01 0.0000e+00 0.0000e+00
       13  1    3    3    0    0 +3.6508494072e+00 -4.0366983360e+01 +2.2384134657e+02 2.2748136293e+02 0.0000000000e+00 0.0000e+00 -1.0000e+00
      -14  1    3    3    0    0 -3.6508494072e+00 +4.0366983360e+01 +1.5129630841e+02 1.5663139847e+02 0.0000000000e+00 0.0000e+00 1.0000e+00
<mgrwt>
<rscale>  0 0.82549096E+02</rscale>
<asrwt>0</asrwt>
<pdfrwt beam="1">  1        1 0.58403853E-01 0.82549096E+02</pdfrwt>
<pdfrwt beam="2">  1       -2 0.69039310E-03 0.82549096E+02</pdfrwt>
<totfact> 0.17336056E+05</totfact>
</mgrwt>
</event>
<event>
 5      1 +7.5707000e+03 8.01219900e+01 7.54677100e-03 1.32870600e-01
       -2 -1    0    0    0  501 -0.0000000000e+00 +0.0000000000e+00 +1.0074594343e+02 1.0074594343e+02 0.0000000000e+00 0.0000e+00 1.0000e+00
        1 -1    0    0  501    0 +0.0000000000e+00 -0.0000000000e+00 -1.5930004400e+01 1.5930004400e+01 0.0000000000e+00 0.0000e+00 -1.0000e+00
      -24  2    1    2    0    0 +0.0000000000e+00 +0.0000000000e+00 +8.4815939034e+01 1.1667594783e+02 8.0121990045e+01 0.0000e+00 0.0000e+00
       13  1    3    3    0    0 +1.7303198372e+01 -1.1875726433e+01 -7.2844324609e+00 2.2214781307e+01 0.0000000000e+00 0.0000e+00 -1.0000e+00
      -14  1    3    3    0    0 -1.7303198372e+01 +1.1875726433e+01 +9.2100371495e+01 9.4461166527e+01 0.0000000000e+00 0.0000e+00 1.0000e+00
<mgrwt>
<rscale>  0 0.80121990E+02</rscale>
<asrwt>0</asrwt>
<pdfrwt beam="1">  1        1 0.24507700E-02 0.80121990E+02</pdfrwt>
<pdfrwt beam="2">  1       -2 0.15499376E-01 0.80121990E+02</pdfrwt>
<totfact> 0.10551927E+05</totfact>
</mgrwt>
</event>
<event>
 5      1 +7.5707000e+03 7.54205200e+01 7.54677100e-03 1.34257400e-01
        1 -1    0    0  501    0 +0.0000000000e+00 +0.0000000000e+00 +3.0749762602e+02 3.0749762602e+02 0.0000000000e+00 0.0000e+00 -1.0000e+00
       -2 -1    0    0    0  501 -0.0000000000e+00 -0.0000000000e+00 -4.6246329575e+00 4.6246329575e+00 0.0000000000e+00 0.0000e+00 1.0000e+00
      -24  2    1    2    0    0 +0.0000000000e+00 +0.0000000000e+00 +3.0287299306e+02 3.1212225898e+02 7.5420518578e+01 0.0000e+00 0.0000e+00
       13  1    3    3    0    0 -3.0480494481e+01 +1.7149985143e+01 +2.0979874394e+02 2.1269390093e+02 0.0000000000e+00 0.0000e+00 -1.0000e+00
      -14  1    3    3    0    0 +3.0480494481e+01 -1.7149985143e+01 +9.3074249119e+01 9.9428358044e+01 0.0000000000e+00 0.0000e+00 1.0000e+00
<mgrwt>
<rscale>  0 0.75420519E+02</rscale>
<asrwt>0</asrwt>
<pdfrwt beam="1">  1        1 0.47307311E-01 0.75420519E+02</pdfrwt>
<pdfrwt beam="2">  1       -2 0.71148224E-03 0.75420519E+02</pdfrwt>
<totfact> 0.21162546E+05</totfact>
</mgrwt>
</event>
<event>
 5      1 +7.5707000e+03 8.05410300e+01 7.54677100e-03 1.32752300e-01
       -2 -1    0    0    0  501 -0.0000000000e+00 +0.0000000000e+00 +1.8170086382e+01 1.8170086382e+01 0.0000000000e+00 0.0000e+00 1.0000e+00
        1 -1    0    0  501    0 +0.0000000000e+00 -0.0000000000e+00 -8.9251879133e+01 8.9251879133e+01 0.0000000000e+00 0.0000e+00 -1.0000e+00
      -24  2    1    2    0    0 +0.0000000000e+00 +0.0000000000e+00 -7.1081792751e+01 1.0742196551e+02 8.0541029384e+01 0.0000e+00 0.0000e+00
       11  1    3    3    0    0 +2.9464881823e+01 +2.7290265950e+01 -3.1589632534e+01 5.1096406528e+01 0.0000000000e+00 0.0000e+00 -1.0000e+00
      -12  1    3    3    0    0 -2.9464881823e+01 -2.7290265950e+01 -3.9492160217e+01 5.6325558986e+01 0.0000000000e+00 0.0000e+00 1.0000e+00
<mgrwt>
<rscale>  0 0.80541029E+02</rscale>
<asrwt>0</asrwt>
<pdfrwt beam="1">  1        1 0.13731058E-01 0.80541029E+02</pdfrwt>
<pdfrwt beam="2">  1       -2 0.27953979E-02 0.80541029E+02</pdfrwt>
<totfact> 0.14162459E+05</totfact>
</mgrwt>
</event>
<event>
 5      1 +7.5707000e+03 6.87567900e+01 7.54677100e-03 1.36437200e-01
       -4 -1    0    0    0  501 -0.0000000000e+00 +0.0000000000e+00 +6.1635770027e+01 6.1635770027e+01 0.0000000000e+00 0.0000e+00 1.0000e+00
        3 -1    0    0  501    0 +0.0000000000e+00 -0.0000000000e+00 -1.9175134770e+01 1.9175134770e+01 0.0000000000e+00 0.0000e+00 -1.0000e+00
      -24  2    1    2    0    0 +0.0000000000e+00 +0.0000000000e+00 +4.2460635257e+01 8.0810904797e+01 6.8756794484e+01 0.0000e+00 0.0000e+00
       13  1    3    3    0    0 -2.7325691024e+01 +9.0021160027e+00 +4.3348197963e+01 5.2026894479e+01 0.0000000000e+00 0.0000e+00 -1.0000e+00
      -14  1    3    3    0    0 +2.7325691024e+01 -9.0021160027e+00 -8.8756270624e-01 2.8784010319e+01 0.0000000000e+00 0.0000e+00 1.0000e+00
<mgrwt>
<rscale>  0 0.68756794E+02</rscale>
<asrwt>0</asrwt>
<pdfrwt beam="1">  1        3 0.29500208E-02 0.68756794E+02</pdfrwt>
<pdfrwt beam="2">  1       -4 0.94824260E-02 0.68756794E+02</pdfrwt>
<totfact> 0.66172429E+04</totfact>
</mgrwt>
</event>
<event>
 5      1 +7.5707000e+03 8.07614300e+01 7.54677100e-03 1.32690400e-01
       -2 -1    0    0    0  501 -0.0000000000e+00 +0.0000000000e+00 +4.7858797628e+02 4.7858797628e+02 0.0000000000e+00 0.0000e+00 1.0000e+00
        1 -1    0    0  501    0 +0.0000000000e+00 -0.0000000000e+00 -3.4071103520e+00 3.4071103520e+00 0.0000000000e+00 0.0000e+00 -1.0000e+00
      -24  2    1    2    0    0 +0.0000000000e+00 +0.0000000000e+00 +4.7518086593e+02 4.8199508663e+02 8.0761427633e+01 0.0000e+00 0.0000e+00
       11  1    3    3    0    0 +1.4676426521e+01 -9.6864463331e+00 +2.0644233561e+01 2.7118427633e+01 0.0000000000e+00 0.0000e+00 -1.0000e+00
      -12  1    3    3    0    0 -1.4676426521e+01 +9.6864463331e+00 +4.5453663237e+02 4.5487665900e+02 0.0000000000e+00 0.0000e+00 1.0000e+00
<mgrwt>
<rscale>  0 0.80761428E+02</rscale>
<asrwt>0</asrwt>
<pdfrwt beam="1">  1        1 0.52417120E-03 0.80761428E+02</pdfrwt>
<pdfrwt beam="2">  1       -2 0.73628866E-01 0.80761428E+02</pdfrwt>
<totfact> 0.50824521E+04</totfact>
</mgrwt>
</event>
<event>
 5      1 +7.5707000e+03 8.10375800e+01 7.54677100e-03 1.32613200e-01
        3 -1    0    0  501    0 +0.0000000000e+00 +0.0000000000e+00 +4.2839804929e+01 4.2839804929e+01 0.0000000000e+00 0.0000e+00 -1.0000e+00
       -4 -1    0    0    0  501 -0.0000000000e+00 -0.0000000000e+00 -3.8323528647e+01 3.8323528647e+01 0.0000000000e+00 0.0000e+00 1.0000e+00
      -24  2    1    2    0    0 +0.0000000000e+00 +0.0000000000e+00 +4.5162762824e+00 8.1163333576e+01 8.1037583662e+01 0.0000e+00 0.0000e+00
       11  1    3    3    0    0 -2.0927696077e+01 +1.8077578670e+01 +3.1918365243e+01 4.2232089144e+01 0.0000000000e+00 0.0000e+00 -1.0000e+00
      -12  1    3    3    0    0 +2.0927696077e+01 -1.8077578670e+01 -2.7402088961e+01 3.8931244433e+01 0.0000000000e+00 0.0000e+00 1.0000e+00
<mgrwt>
<rscale>  0 0.81037584E+02</rscale>
<asrwt>0</asrwt>
<pdfrwt beam="1">  1        3 0.65907392E-02 0.81037584E+02</pdfrwt>
<pdfrwt beam="2">  1       -4 0.58959275E-02 0.81037584E+02</pdfrwt>
<totfact> 0.43538913E+04</totfact>
</mgrwt>
</event>
<event>
 5      1 +7.5707000e+03 7.67833800e+01 7.54677100e-03 1.33843600e-01
       -2 -1    0    0    0  501 -0.0000000000e+00 +0.0000000000e+00 +1.6442058065e+01 1.6442058065e+01 0.0000000000e+00 0.0000e+00 1.0000e+00
        1 -1    0    0  501    0 +0.0000000000e+00 -0.0000000000e+00 -8.9643402977e+01 8.9643402977e+01 0.0000000000e+00 0.0000e+00 -1.0000e+00
      -24  2    1    2    0    0 +0.0000000000e+00 +0.0000000000e+00 -7.3201344912e+01 1.0608546104e+02 7.6783384580e+01 0.0000e+00 0.0000e+00
       11  1    3    3    0    0 -2.7705233112e+01 -1.1798185194e+00 -7.3283922985e+01 7.8354995256e+01 0.0000000000e+00 0.0000e+00 -1.0000e+00
      -12  1    3    3    0    0 +2.7705233112e+01 +1.1798185194e+00 +8.2578073122e-02 2.7730465786e+01 0.0000000000e+00 0.0000e+00 1.0000e+00
<mgrwt>
<rscale>  0 0.76783385E+02</rscale>
<asrwt>0</asrwt>
<pdfrwt beam="1">  1        1 0.13791293E-01 0.76783385E+02</pdfrwt>
<pdfrwt beam="2">  1       -2 0.25295474E-02 0.76783385E+02</pdfrwt>
<totfact> 0.16128835E+05</totfact>
</mgrwt>
</event>
<event>
 5      1 +7.5707000e+03 7.93084700e+01 7.54677100e-03 1.33102500e-01
       -4 -1    0    0    0  501 -0.0000000000e+00 +0.0000000000e+00 +5.8659056538e+01 5.8659056538e+01 0.0000000000e+00 0.0000e+00 1.0000e+00
        3 -1    0    0  501    0 +0.0000000000e+00 -0.0000000000e+00 -2.6806745281e+01 2.6806745281e+01 0.0000000000e+00 0.0000e+00 -1.0000e+00
      -24  2    1    2    0    0 +0.0000000000e+00 +0.0000000000e+00 +3.1852311257e+01 8.5465801819e+01 7.9308470848e+01 0.0000e+00 0.0000e+00
       11  1    3    3    0    0 +2.0821408758e+01 -1.8394014950e+01 -1.4565233330e+01 3.1369043190e+01 0.0000000000e+00 0.0000e+00 -1.0000e+00
      -12  1    3    3    0    0 -2.0821408758e+01 +1.8394014950e+01 +4.6417544587e+01 5.4096758629e+01 0.0000000000e+00 0.0000e+00 1.0000e+00
<mgrwt>
<rscale>  0 0.79308471E+02</rscale>
<asrwt>0</asrwt>
<pdfrwt beam="1">  1        3 0.41241147E-02 0.79308471E+02</pdfrwt>
<pdfrwt beam="2">  1       -4 0.90244702E-02 0.79308471E+02</pdfrwt>
<totfact> 0.45079550E+04</totfact>
</mgrwt>
</event>
<event>
 5      1 +7.5707000e+03 5.29173500e+01 7.54677100e-03 1.43021300e-01
        3 -1    0    0  501    0 +0.0000000000e+00 +0.0000000000e+00 +2.2935436301e+01 2.2935436301e+01 0.0000000000e+00 0.0000e+00 -1.0000e+00
       -4 -1    0    0    0  501 -0.0000000000e+00 -0.0000000000e+00 -3.0523135583e+01 3.0523135583e+01 0.0000000000e+00 0.0000e+00 1.0000e+00
      -24  2    1    2    0    0 +0.0000000000e+00 +0.0000000000e+00 -7.5876992821e+00 5.3458571883e+01 5.2917348076e+01 0.0000e+00 0.0000e+00
       11  1    3    3    0    0 -6.2404221057e+00 +2.0868488147e+01 +1.1380590111e+01 2.4575485689e+01 0.0000000000e+00 0.0000e+00 -1.0000e+00
      -12  1    3    3    0    0 +6.2404221057e+00 -2.0868488147e+01 -1.8968289393e+01 2.8883086194e+01 0.0000000000e+00 0.0000e+00 1.0000e+00
<mgrwt>
<rscale>  0 0.52917348E+02</rscale>
<asrwt>0</asrwt>
<pdfrwt beam="1">  1        3 0.35285286E-02 0.52917348E+02</pdfrwt>
<pdfrwt beam="2">  1       -4 0.46958670E-02 0.52917348E+02</pdfrwt>
<totfact> 0.14122048E+05</totfact>
</mgrwt>
</event>
<event>
 5      1 +7.5707000e+03 8.35511900e+01 7.54677100e-03 1.31926500e-01
        1 -1    0    0  501    0 +0.0000000000e+00 +0.0000000000e+00 +3.2041542551e+02 3.2041542551e+02 0.0000000000e+00 0.0000e+00 -1.0000e+00
       -2 -1    0    0    0  501 -0.0000000000e+00 -0.0000000000e+00 -5.4466805245e+00 5.4466805245e+00 0.0000000000e+00 0.0000e+00 1.0000e+00
      -24  2    1    2    0    0 +0.0000000000e+00 +0.0000000000e+00 +3.1496874499e+02 3.2586210604e+02 8.3551192879e+01 0.0000e+00 0.0000e+00
       11  1    3    3    0    0 +4.6580617213e+00 +4.1509950342e+01 +1.6003275946e+02 1.6539424904e+02 0.0000000000e+00 0.0000e+00 -1.0000e+00
      -12  1    3    3    0    0 -4.6580617213e+00 -4.1509950342e+01 +1.5493598553e+02 1.6046785699e+02 0.0000000000e+00 0.0000e+00 1.0000e+00
<mgrwt>
<rscale>  0 0.83551193E+02</rscale>
<asrwt>0</asrwt>
<pdfrwt beam="1">  1        1 0.49294666E-01 0.83551193E+02</pdfrwt>
<pdfrwt beam="2">  1       -2 0.83795110E-03 0.83551193E+02</pdfrwt>
<totfact> 0.16287918E+05</totfact>
</mgrwt>
</event>
<event>
 5      1 +7.5707000e+03 8.03050600e+01 7.54677100e-03 1.32818800e-01
        1 -1    0    0  501    0 +0.0000000000e+00 +0.0000000000e+00 +1.6466329508e+02 1.6466329508e+02 0.0000000000e+00 0.0000e+00 -1.0000e+00
       -2 -1    0    0    0  501 -0.0000000000e+00 -0.0000000000e+00 -9.7910446175e+00 9.7910446175e+00 0.0000000000e+00 0.0000e+00 1.0000e+00
      -24  2    1    2    0    0 +0.0000000000e+00 +0.0000000000e+00 +1.5487225046e+02 1.7445433970e+02 8.0305060090e+01 0.0000e+00 0.0000e+00
       13  1    3    3    0    0 -3.5512777757e+01 -1.8556012256e+01 +7.1795131779e+01 8.2219364642e+01 0.0000000000e+00 0.0000e+00 -1.0000e+00
      -14  1    3    3    0    0 +3.5512777757e+01 +1.8556012256e+01 +8.3077118684e+01 9.2234975057e+01 0.0000000000e+00 0.0000e+00 1.0000e+00
<mgrwt>
<rscale>  0 0.80305060E+02</rscale>
<asrwt>0</asrwt>
<pdfrwt beam="1">  1        1 0.25332813E-01 0.80305060E+02</pdfrwt>
<pdfrwt beam="2">  1       -2 0.15063147E-02 0.80305060E+02</pdfrwt>
<totfact> 0.15902795E+05</totfact>
</mgrwt>
</event>
<event>
 5      1 +7.5707000e+03 7.69791600e+01 7.54677100e-03 1.33785000e-01
        1 -1    0    0  501    0 +0.0000000000e+00 +0.0000000000e+00 +2.7621614150e+01 2.7621614150e+01 0.0000000000e+00 0.0000e+00 -1.0000e+00
       -2 -1    0    0    0  501 -0.0000000000e+00 -0.0000000000e+00 -5.3633635706e+01 5.3633635706e+01 0.0000000000e+00 0.0000e+00 1.0000e+00
      -24  2    1    2    0    0 +0.0000000000e+00 +0.0000000000e+00 -2.6012021556e+01 8.1255249856e+01 7.6979155385e+01 0.0000e+00 0.0000e+00
       13  1    3    3    0    0 +3.6762314484e+01 +5.0958775369e+00 -2.2408700093e+00 3.7181409770e+01 0.0000000000e+00 0.0000e+00 -1.0000e+00
      -14  1    3    3    0    0 -3.6762314484e+01 -5.0958775369e+00 -2.3771151546e+01 4.4073840086e+01 0.0000000000e+00 0.0000e+00 1.0000e+00
<mgrwt>
<rscale>  0 0.76979155E+02</rscale>
<asrwt>0</asrwt>
<pdfrwt beam="1">  1        1 0.42494792E-02 0.76979155E+02</pdfrwt>
<pdfrwt beam="2">  1       -2 0.82513284E-02 0.76979155E+02</pdfrwt>
<totfact> 0.13313509E+05</totfact>
</mgrwt>
</event>
<event>
 5      1 +7.5707000e+03 8.05542700e+01 7.54677100e-03 1.32748600e-01
       -2 -1    0    0    0  501 -0.0000000000e+00 +0.0000000000e+00 +6.2900487342e+00 6.2900487342e+00 0.0000000000e+00 0.0000e+00 1.0000e+00
        1 -1    0    0  501    0 +0.0000000000e+00 -0.0000000000e+00 -2.5790700516e+02 2.5790700516e+02 0.0000000000e+00 0.0000e+00 -1.0000e+00
      -24  2    1    2    0    0 +0.0000000000e+00 +0.0000000000e+00 -2.5161695643e+02 2.6419705390e+02 8.0554270684e+01 0.0000e+00 0.0000e+00
       13  1    3    3    0    0 +2.2969540605e+01 +3.3085195653e+01 -1.2624437919e+02 1.3251367191e+02 0.0000000000e+00 0.0000e+00 -1.0000e+00
      -14  1    3    3    0    0 -2.2969540605e+01 -3.3085195653e+01 -1.2537257724e+02 1.3168338198e+02 0.0000000000e+00 0.0000e+00 1.0000e+00
<mgrwt>
<rscale>  0 0.80554271E+02</rscale>
<asrwt>0</asrwt>
<pdfrwt beam="1">  1        1 0.39678004E-01 0.80554271E+02</pdfrwt>
<pdfrwt beam="2">  1       -2 0.96769974E-03 0.80554271E+02</pdfrwt>
<totfact> 0.17204306E+05</totfact>
</mgrwt>
</event>
<event>
 5      1 +7.5707000e+03 8.54645300e+01 7.54677100e-03 1.31422200e-01
        1 -1    0    0  501    0 +0.0000000000e+00 +0.0000000000e+00 +2.5038836438e+01 2.5038836438e+01 0.0000000000e+00 0.0000e+00 -1.0000e+00
       -2 -1    0    0    0  501 -0.0000000000e+00 -0.0000000000e+00 -7.2928570253e+01 7.2928570253e+01 0.0000000000e+00 0.0000e+00 1.0000e+00
      -24  2    1    2    0    0 +0.0000000000e+00 +0.0000000000e+00 -4.7889733815e+01 9.7967406692e+01 8.5464531643e+01 0.0000e+00 0.0000e+00
       11  1    3    3    0    0 +2.7490985963e+00 +9.9937218752e+00 +2.3576063337e+01 2.5753888687e+01 0.0000000000e+00 0.0000e+00 -1.0000e+00
      -12  1    3    3    0    0 -2.7490985963e+00 -9.9937218752e+00 -7.1465797152e+01 7.2213518005e+01 0.0000000000e+00 0.0000e+00 1.0000e+00
<mgrwt>
<rscale>  0 0.85464532E+02</rscale>
<asrwt>0</asrwt>
<pdfrwt beam="1">  1        1 0.38521287E-02 0.85464532E+02</pdfrwt>
<pdfrwt beam="2">  1       -2 0.11219780E-01 0.85464532E+02</pdfrwt>
<totfact> 0.96322781E+04</totfact>
</mgrwt>
</event>
<event>
 5      1 +7.5707000e+03 7.64013800e+01 7.54677100e-03 1.33958600e-01
       -2 -1    0    0    0  501 -0.0000000000e+00 +0.0000000000e+00 +2.0386066160e+01 2.0386066160e+01 0.0000000000e+00 0.0000e+00 1.0000e+00
        1 -1    0    0  501    0 +0.0000000000e+00 -0.0000000000e+00 -7.1582856039e+01 7.1582856039e+01 0.0000000000e+00 0.0000e+00 -1.0000e+00
      -24  2    1    2    0    0 +0.0000000000e+00 +0.0000000000e+00 -5.1196789879e+01 9.1968922199e+01 7.6401383210e+01 0.0000e+00 0.0000e+00
       13  1    3    3    0    0 +1.3915497182e+01 -3.5457879492e-01 -6.8421230424e+01 6.9822858440e+01 0.0000000000e+00 0.0000e+00 -1.0000e+00
      -14  1    3    3    0    0 -1.3915497182e+01 +3.5457879492e-01 +1.7224440545e+01 2.2146063759e+01 0.0000000000e+00 0.0000e+00 1.0000e+00
<mgrwt>
<rscale>  0 0.76401383E+02</rscale>
<asrwt>0</asrwt>
<pdfrwt beam="1">  1        1 0.11012747E-01 0.76401383E+02</pdfrwt>
<pdfrwt beam="2">  1       -2 0.31363179E-02 0.76401383E+02</pdfrwt>
<totfact> 0.15780893E+05</totfact>
</mgrwt>
</event>
<event>
 5      1 +7.5707000e+03 7.98772400e+01 7.54677100e-03 1.32940000e-01
        1 -1    0    0  501    0 +0.0000000000e+00 +0.0000000000e+00 +1.0332531258e+02 1.0332531258e+02 0.0000000000e+00 0.0000e+00 -1.0000e+00
       -2 -1    0    0    0  501 -0.0000000000e+00 -0.0000000000e+00 -1.5437584639e+01 1.5437584639e+01 0.0000000000e+00 0.0000e+00 1.0000e+00
      -24  2    1    2    0    0 +0.0000000000e+00 +0.0000000000e+00 +8.7887727940e+01 1.1876289722e+02 7.9877237265e+01 0.0000e+00 0.0000e+00
       13  1    3    3    0    0 -3.8463602444e+01 +2.7320859218e+00 +5.9408216529e+01 7.0825484098e+01 0.0000000000e+00 0.0000e+00 -1.0000e+00
      -14  1    3    3    0    0 +3.8463602444e+01 -2.7320859218e+00 +2.8479511410e+01 4.7937413120e+01 0.0000000000e+00 0.0000e+00 1.0000e+00
<mgrwt>
<rscale>  0 0.79877237E+02</rscale>
<asrwt>0</asrwt>
<pdfrwt beam="1">  1        1 0.15896201E-01 0.79877237E+02</pdfrwt>
<pdfrwt beam="2">  1       -2 0.23750131E-02 0.79877237E+02</pdfrwt>
<totfact> 0.14841909E+05</totfact>
</mgrwt>
</event>
<event>
 5      1 +7.5707000e+03 8.07219800e+01 7.54677100e-03 1.32701500e-01
       -2 -1    0    0    0  501 -0.0000000000e+00 +0.0000000000e+00 +5.6501039334e+01 5.6501039334e+01 0.0000000000e+00 0.0000e+00 1.0000e+00
        1 -1    0    0  501    0 +0.0000000000e+00 -0.0000000000e+00 -2.8831499801e+01 2.8831499801e+01 0.0000000000e+00 0.0000e+00 -1.0000e+00
      -24  2    1    2    0    0 +0.0000000000e+00 +0.0000000000e+00 +2.7669539533e+01 8.5332539134e+01 8.0721984720e+01 0.0000e+00 0.0000e+00
       13  1    3    3    0    0 +1.5093332250e+01 +3.5952387244e+01 +2.8170560155e+00 3.9093716010e+01 0.0000000000e+00 0.0000e+00 -1.0000e+00
      -14  1    3    3    0    0 -1.5093332250e+01 -3.5952387244e+01 +2.4852483517e+01 4.6238823124e+01 0.0000000000e+00 0.0000e+00 1.0000e+00
<mgrwt>
<rscale>  0 0.80721985E+02</rscale>
<asrwt>0</asrwt>
<pdfrwt beam="1">  1        1 0.44356154E-02 0.80721985E+02</pdfrwt>
<pdfrwt beam="2">  1       -2 0.86924675E-02 0.80721985E+02</pdfrwt>
<totfact> 0.11701983E+05</totfact>
</mgrwt>
</event>
<event>
 5      1 +7.5707000e+03 8.10212900e+01 7.54677100e-03 1.32617800e-01
       -2 -1    0    0    0  501 -0.0000000000e+00 +0.0000000000e+00 +2.1377394503e+01 2.1377394503e+01 0.0000000000e+00 0.0000e+00 1.0000e+00
        1 -1    0    0  501    0 +0.0000000000e+00 -0.0000000000e+00 -7.6768586590e+01 7.6768586590e+01 0.0000000000e+00 0.0000e+00 -1.0000e+00
      -24  2    1    2    0    0 +0.0000000000e+00 +0.0000000000e+00 -5.5391192088e+01 9.8145981093e+01 8.1021290065e+01 0.0000e+00 0.0000e+00
       13  1    3    3    0    0 +1.3744876120e+01 +2.4330323737e+01 -6.3224325046e+01 6.9124536528e+01 0.0000000000e+00 0.0000e+00 -1.0000e+00
      -14  1    3    3    0    0 -1.3744876120e+01 -2.4330323737e+01 +7.8331329578e+00 2.9021444565e+01 0.0000000000e+00 0.0000e+00 1.0000e+00
<mgrwt>
<rscale>  0 0.81021290E+02</rscale>
<asrwt>0</asrwt>
<pdfrwt beam="1">  1        1 0.11810552E-01 0.81021290E+02</pdfrwt>
<pdfrwt beam="2">  1       -2 0.32888299E-02 0.81021290E+02</pdfrwt>
<totfact> 0.13596655E+05</totfact>
</mgrwt>
</event>
<event>
 5      1 +7.5707000e+03 8.31908800e+01 7.54677100e-03 1.32023300e-01
        1 -1    0    0  501    0 +0.0000000000e+00 +0.0000000000e+00 +6.5605595916e+01 6.5605595916e+01 0.0000000000e+00 0.0000e+00 -1.0000e+00
       -2 -1    0    0    0  501 -0.0000000000e+00 -0.0000000000e+00 -2.6372456904e+01 2.6372456904e+01 0.0000000000e+00 0.0000e+00 1.0000e+00
      -24  2    1    2    0    0 +0.0000000000e+00 +0.0000000000e+00 +3.9233139012e+01 9.1978052820e+01 8.3190882937e+01 0.0000e+00 0.0000e+00
       11  1    3    3    0    0 +2.9776481618e+00 +4.0216913718e+01 +3.0887141428e+01 5.0796476681e+01 0.0000000000e+00 0.0000e+00 -1.0000e+00
      -12  1    3    3    0    0 -2.9776481618e+00 -4.0216913718e+01 +8.3459975836e+00 4.1181576139e+01 0.0000000000e+00 0.0000e+00 1.0000e+00
<mgrwt>
<rscale>  0 0.83190883E+02</rscale>
<asrwt>0</asrwt>
<pdfrwt beam="1">  1        1 0.10093169E-01 0.83190883E+02</pdfrwt>
<pdfrwt beam="2">  1       -2 0.40573011E-02 0.83190883E+02</pdfrwt>
<totfact> 0.12327601E+05</totfact>
</mgrwt>
</event>
<event>
 5      1 +7.5707000e+03 7.92361100e+01 7.54677100e-03 1.33123300e-01
        1 -1    0    0  501    0 +0.0000000000e+00 +0.0000000000e+00 +1.5127737105e+01 1.5127737105e+01 0.0000000000e+00 0.0000e+00 -1.0000e+00
       -2 -1    0    0    0  501 -0.0000000000e+00 -0.0000000000e+00 -1.0375579375e+02 1.0375579375e+02 0.0000000000e+00 0.0000e+00 1.0000e+00
      -24  2    1    2    0    0 +0.0000000000e+00 +0.0000000000e+00 -8.8628056645e+01 1.1888353086e+02 7.9236112247e+01 0.0000e+00 0.0000e+00
       11  1    3    3    0    0 -2.2650093135e+01 +3.2480556250e+01 -4.2429812737e+01 5.8037076617e+01 0.0000000000e+00 0.0000e+00 -1.0000e+00
      -12  1    3    3    0    0 +2.2650093135e+01 -3.2480556250e+01 -4.6198243908e+01 6.0846454239e+01 0.0000000000e+00 0.0000e+00 1.0000e+00
<mgrwt>
<rscale>  0 0.79236112E+02</rscale>
<asrwt>0</asrwt>
<pdfrwt beam="1">  1        1 0.23273442E-02 0.79236112E+02</pdfrwt>
<pdfrwt beam="2">  1       -2 0.15962429E-01 0.79236112E+02</pdfrwt>
<totfact> 0.10776439E+05</totfact>
</mgrwt>
</event>
<event>
 5      1 +7.5707000e+03 6.81974500e+01 7.54677100e-03 1.36633200e-01
       -2 -1    0    0    0  501 -0.0000000000e+00 +0.0000000000e+00 +4.0043204878e+02 4.0043204878e+02 0.0000000000e+00 0.0000e+00 1.0000e+00
        1 -1    0    0  501    0 +0.0000000000e+00 -0.0000000000e+00 -2.9036713510e+00 2.9036713510e+00 0.0000000000e+00 0.0000e+00 -1.0000e+00
      -24  2    1    2    0    0 +0.0000000000e+00 +0.0000000000e+00 +3.9752837743e+02 4.0333572013e+02 6.8197450629e+01 0.0000e+00 0.0000e+00
       13  1    3    3    0    0 -1.8136291555e+01 +9.9761844899e+00 +3.8503301088e+01 4.3714454395e+01 0.0000000000e+00 0.0000e+00 -1.0000e+00
      -14  1    3    3    0    0 +1.8136291555e+01 -9.9761844899e+00 +3.5902507634e+02 3.5962126574e+02 0.0000000000e+00 0.0000e+00 1.0000e+00
<mgrwt>
<rscale>  0 0.68197451E+02</rscale>
<asrwt>0</asrwt>
<pdfrwt beam="1">  1        1 0.44671899E-03 0.68197451E+02</pdfrwt>
<pdfrwt beam="2">  1       -2 0.61604887E-01 0.68197451E+02</pdfrwt>
<totfact> 0.88934774E+04</totfact>
</mgrwt>
</event>
<event>
 5      1 +7.5707000e+03 7.95537700e+01 7.54677100e-03 1.33032300e-01
        1 -1    0    0  501    0 +0.0000000000e+00 +0.0000000000e+00 +2.9397211388e+01 2.9397211388e+01 0.0000000000e+00 0.0000e+00 -1.0000e+00
       -2 -1    0    0    0  501 -0.0000000000e+00 -0.0000000000e+00 -5.3821453475e+01 5.3821453475e+01 0.0000000000e+00 0.0000e+00 1.0000e+00
      -24  2    1    2    0    0 +0.0000000000e+00 +0.0000000000e+00 -2.4424242086e+01 8.3218664863e+01 7.9553771627e+01 0.0000e+00 0.0000e+00
       13  1    3    3    0    0 -8.8509002977e+00 +2.7709973474e+01 -4.0591615393e+01 4.9938565320e+01 0.0000000000e+00 0.0000e+00 -1.0000e+00
      -14  1    3    3    0    0 +8.8509002977e+00 -2.7709973474e+01 +1.6167373307e+01 3.3280099543e+01 0.0000000000e+00 0.0000e+00 1.0000e+00
<mgrwt>
<rscale>  0 0.79553772E+02</rscale>
<asrwt>0</asrwt>
<pdfrwt beam="1">  1        1 0.45226479E-02 0.79553772E+02</pdfrwt>
<pdfrwt beam="2">  1       -2 0.82802236E-02 0.79553772E+02</pdfrwt>
<totfact> 0.12246735E+05</totfact>
</mgrwt>
</event>
<event>
 5      1 +7.5707000e+03 8.09249200e+01 7.54677100e-03 1.32644700e-01
        1 -1    0    0  501    0 +0.0000000000e+00 +0.0000000000e+00 +5.8685368648e+01 5.8685368648e+01 0.0000000000e+00 0.0000e+00 -1.0000e+00
       -2 -1    0    0    0  501 -0.0000000000e+00 -0.0000000000e+00 -2.7898107465e+01 2.7898107465e+01 0.0000000000e+00 0.0000e+00 1.0000e+00
      -24  2    1    2    0    0 +0.0000000000e+00 +0.0000000000e+00 +3.0787261183e+01 8.6583476112e+01 8.0924921282e+01 0.0000e+00 0.0000e+00
       13  1    3    3    0    0 -1.4105806402e+01 +7.5641142328e+00 +5.5154227225e+01 5.7429769102e+01 0.0000000000e+00 0.0000e+00 -1.0000e+00
      -14  1    3    3    0    0 +1.4105806402e+01 -7.5641142328e+00 -2.4366966041e+01 2.9153707010e+01 0.0000000000e+00 0.0000e+00 1.0000e+00
<mgrwt>
<rscale>  0 0.80924921E+02</rscale>
<asrwt>0</asrwt>
<pdfrwt beam="1">  1        1 0.90285182E-02 0.80924921E+02</pdfrwt>
<pdfrwt beam="2">  1       -2 0.42920165E-02 0.80924921E+02</pdfrwt>
<totfact> 0.13069974E+05</totfact>
</mgrwt>
</event>
<event>
 5      1 +7.5707000e+03 8.00387400e+01 7.54677100e-03 1.32894200e-01
       -4 -1    0    0    0  501 -0.0000000000e+00 +0.0000000000e+00 +3.5812197357e+02 3.5812197357e+02 0.0000000000e+00 0.0000e+00 1.0000e+00
        3 -1    0    0  501    0 +0.0000000000e+00 -0.0000000000e+00 -4.4720799818e+00 4.4720799818e+00 0.0000000000e+00 0.0000e+00 -1.0000e+00
      -24  2    1    2    0    0 +0.0000000000e+00 +0.0000000000e+00 +3.5364989359e+02 3.6259405356e+02 8.0038743345e+01 0.0000e+00 0.0000e+00
       11  1    3    3    0    0 +3.5423541735e+01 +1.4063308622e+01 +1.2153641490e+02 1.2737230510e+02 0.0000000000e+00 0.0000e+00 -1.0000e+00
      -12  1    3    3    0    0 -3.5423541735e+01 -1.4063308622e+01 +2.3211347869e+02 2.3522174846e+02 0.0000000000e+00 0.0000e+00 1.0000e+00
<mgrwt>
<rscale>  0 0.80038743E+02</rscale>
<asrwt>0</asrwt>
<pdfrwt beam="1">  1        3 0.68801259E-03 0.80038743E+02</pdfrwt>
<pdfrwt beam="2">  1       -4 0.55095666E-01 0.80038743E+02</pdfrwt>
<totfact> 0.24820974E+04</totfact>
</mgrwt>
</event>
<event>
 5      1 +7.5707000e+03 8.03248700e+01 7.54677100e-03 1.32813200e-01
       -2 -1    0    0    0  501 -0.0000000000e+00 +0.0000000000e+00 +7.5158806718e+01 7.5158806718e+01 0.0000000000e+00 0.0000e+00 1.0000e+00
        1 -1    0    0  501    0 +0.0000000000e+00 -0.0000000000e+00 -2.1461504370e+01 2.1461504370e+01 0.0000000000e+00 0.0000e+00 -1.0000e+00
      -24  2    1    2    0    0 +0.0000000000e+00 +0.0000000000e+00 +5.3697302348e+01 9.6620311087e+01 8.0324866854e+01 0.0000e+00 0.0000e+00
       11  1    3    3    0    0 +2.4802516382e+01 -3.0539038221e+01 +3.6563142891e+01 5.3709041068e+01 0.0000000000e+00 0.0000e+00 -1.0000e+00
      -12  1    3    3    0    0 -2.4802516382e+01 +3.0539038221e+01 +1.7134159457e+01 4.2911270019e+01 0.0000000000e+00 0.0000e+00 1.0000e+00
<mgrwt>
<rscale>  0 0.80324867E+02</rscale>
<asrwt>0</asrwt>
<pdfrwt beam="1">  1        1 0.33017699E-02 0.80324867E+02</pdfrwt>
<pdfrwt beam="2">  1       -2 0.11562893E-01 0.80324867E+02</pdfrwt>
<totfact> 0.11208890E+05</totfact>
</mgrwt>
</event>
<event>
 5      1 +7.5707000e+03 8.08307600e+01 7.54677100e-03 1.32671000e-01
        1 -1    0    0  501    0 +0.0000000000e+00 +0.0000000000e+00 +9.4933853168e+02 9.4933853168e+02 0.0000000000e+00 0.0000e+00 -1.0000e+00
       -2 -1    0    0    0  501 -0.0000000000e+00 -0.0000000000e+00 -1.7205696970e+00 1.7205696970e+00 0.0000000000e+00 0.0000e+00 1.0000e+00
      -24  2    1    2    0    0 +0.0000000000e+00 +0.0000000000e+00 +9.4761796198e+02 9.5105910137e+02 8.0830764188e+01 0.0000e+00 0.0000e+00
       13  1    3    3    0    0 +1.6136237062e+01 +1.4259242206e+01 +7.1399804315e+01 7.4576378238e+01 0.0000000000e+00 0.0000e+00 -1.0000e+00
      -14  1    3    3    0    0 -1.6136237062e+01 -1.4259242206e+01 +8.7621815766e+02 8.7648272314e+02 0.0000000000e+00 0.0000e+00 1.0000e+00
<mgrwt>
<rscale>  0 0.80830764E+02</rscale>
<asrwt>0</asrwt>
<pdfrwt beam="1">  1        1 0.14605166E+00 0.80830764E+02</pdfrwt>
<pdfrwt beam="2">  1       -2 0.26470379E-03 0.80830764E+02</pdfrwt>
<totfact> 0.18882922E+05</totfact>
</mgrwt>
</event>
<event>
 5      1 +7.5707000e+03 7.62980200e+01 7.54677100e-03 1.33989800e-01
        1 -1    0    0  501    0 +0.0000000000e+00 +0.0000000000e+00 +1.7255274151e+01 1.7255274151e+01 0.0000000000e+00 0.0000e+00 -1.0000e+00
       -2 -1    0    0    0  501 -0.0000000000e+00 -0.0000000000e+00 -8.4342142593e+01 8.4342142593e+01 0.0000000000e+00 0.0000e+00 1.0000e+00
      -24  2    1    2    0    0 +0.0000000000e+00 +0.0000000000e+00 -6.7086868442e+01 1.0159741674e+02 7.6298015517e+01 0.0000e+00 0.0000e+00
       13  1    3    3    0    0 +2.3327856543e+01 +2.9084961985e+01 -2.2789448957e+01 4.3697630237e+01 0.0000000000e+00 0.0000e+00 -1.0000e+00
      -14  1    3    3    0    0 -2.3327856543e+01 -2.9084961985e+01 -4.4297419485e+01 5.7899786507e+01 0.0000000000e+00 0.0000e+00 1.0000e+00
<mgrwt>
<rscale>  0 0.76298016E+02</rscale>
<asrwt>0</asrwt>
<pdfrwt beam="1">  1        1 0.26546576E-02 0.76298016E+02</pdfrwt>
<pdfrwt beam="2">  1       -2 0.12975714E-01 0.76298016E+02</pdfrwt>
<totfact> 0.12465233E+05</totfact>
</mgrwt>
</event>
<event>
 5      1 +7.5707000e+03 8.06760400e+01 7.54677100e-03 1.32714400e-01
       -2 -1    0    0    0  501 -0.0000000000e+00 +0.0000000000e+00 +7.8592732141e+00 7.8592732141e+00 0.0000000000e+00 0.0000e+00 1.0000e+00
        1 -1    0    0  501    0 +0.0000000000e+00 -0.0000000000e+00 -2.0703644182e+02 2.0703644182e+02 0.0000000000e+00 0.0000e+00 -1.0000e+00
      -24  2    1    2    0    0 +0.0000000000e+00 +0.0000000000e+00 -1.9917716860e+02 2.1489571503e+02 8.0676042578e+01 0.0000e+00 0.0000e+00
       11  1    3    3    0    0 +3.2946740718e+01 -2.1905892967e+01 -1.2052863487e+02 1.2685624815e+02 0.0000000000e+00 0.0000e+00 -1.0000e+00
      -12  1    3    3    0    0 -3.2946740718e+01 +2.1905892967e+01 -7.8648533733e+01 8.8039466883e+01 0.0000000000e+00 0.0000e+00 1.0000e+00
<mgrwt>
<rscale>  0 0.80676043E+02</rscale>
<asrwt>0</asrwt>
<pdfrwt beam="1">  1        1 0.31851758E-01 0.80676043E+02</pdfrwt>
<pdfrwt beam="2">  1       -2 0.12091191E-02 0.80676043E+02</pdfrwt>
<totfact> 0.16415541E+05</totfact>
</mgrwt>
</event>
<event>
 5      1 +7.5707000e+03 7.99436600e+01 7.54677100e-03 1.32921100e-01
        1 -1    0    0  501    0 +0.0000000000e+00 +0.0000000000e+00 +6.2446173746e+01 6.2446173746e+01 0.0000000000e+00 0.0000e+00 -1.0000e+00
       -2 -1    0    0    0  501 -0.0000000000e+00 -0.0000000000e+00 -2.5585987781e+01 2.5585987781e+01 0.0000000000e+00 0.0000e+00 1.0000e+00
      -24  2    1    2    0    0 +0.0000000000e+00 +0.0000000000e+00 +3.6860185965e+01 8.8032161528e+01 7.9943656120e+01 0.0000e+00 0.0000e+00
       11  1    3    3    0    0 -1.8316428919e+01 -1.7291767253e+01 +5.2606541120e+01 5.8326194387e+01 0.0000000000e+00 0.0000e+00 -1.0000e+00
      -12  1    3    3    0    0 +1.8316428919e+01 +1.7291767253e+01 -1.5746355155e+01 2.9705967140e+01 0.0000000000e+00 0.0000e+00 1.0000e+00
<mgrwt>
<rscale>  0 0.79943656E+02</rscale>
<asrwt>0</asrwt>
<pdfrwt beam="1">  1        1 0.96071036E-02 0.79943656E+02</pdfrwt>
<pdfrwt beam="2">  1       -2 0.39363058E-02 0.79943656E+02</pdfrwt>
<totfact> 0.13649914E+05</totfact>
</mgrwt>
</event>
<event>
 5      1 +7.5707000e+03 7.73377300e+01 7.54677100e-03 1.33678100e-01
       -4 -1    0    0    0  501 -0.0000000000e+00 +0.0000000000e+00 +1.2561758195e+02 1.2561758195e+02 0.0000000000e+00 0.0000e+00 1.0000e+00
        3 -1    0    0  501    0 +0.0000000000e+00 -0.0000000000e+00 -1.1903438891e+01 1.1903438891e+01 0.0000000000e+00 0.0000e+00 -1.0000e+00
      -24  2    1    2    0    0 +0.0000000000e+00 +0.0000000000e+00 +1.1371414306e+02 1.3752102084e+02 7.7337732327e+01 0.0000e+00 0.0000e+00
       13  1    3    3    0    0 +3.8621265432e+01 -1.8555347929e+00 +5.7721017329e+01 6.9474894706e+01 0.0000000000e+00 0.0000e+00 -1.0000e+00
      -14  1    3    3    0    0 -3.8621265432e+01 +1.8555347929e+00 +5.5993125727e+01 6.8046126132e+01 0.0000000000e+00 0.0000e+00 1.0000e+00
<mgrwt>
<rscale>  0 0.77337732E+02</rscale>
<asrwt>0</asrwt>
<pdfrwt beam="1">  1        3 0.18312984E-02 0.77337732E+02</pdfrwt>
<pdfrwt beam="2">  1       -4 0.19325781E-01 0.77337732E+02</pdfrwt>
<totfact> 0.41951486E+04</totfact>
</mgrwt>
</event>
<event>
 5      1 +7.5707000e+03 7.90280300e+01 7.54677100e-03 1.33183300e-01
       -2 -1    0    0    0  501 -0.0000000000e+00 +0.0000000000e+00 +5.0552230429e+01 5.0552230429e+01 0.0000000000e+00 0.0000e+00 1.0000e+00
        1 -1    0    0  501    0 +0.0000000000e+00 -0.0000000000e+00 -3.0886023779e+01 3.0886023779e+01 0.0000000000e+00 0.0000e+00 -1.0000e+00
      -24  2    1    2    0    0 +0.0000000000e+00 +0.0000000000e+00 +1.9666206649e+01 8.1438254208e+01 7.9028030245e+01 0.0000e+00 0.0000e+00
       13  1    3    3    0    0 -1.1290909163e+01 -4.7172145391e+00 -2.8884306801e+01 3.1369410612e+01 0.0000000000e+00 0.0000e+00 -1.0000e+00
      -14  1    3    3    0    0 +1.1290909163e+01 +4.7172145391e+00 +4.8550513451e+01 5.0068843596e+01 0.0000000000e+00 0.0000e+00 1.0000e+00
<mgrwt>
<rscale>  0 0.79028030E+02</rscale>
<asrwt>0</asrwt>
<pdfrwt beam="1">  1        1 0.47516960E-02 0.79028030E+02</pdfrwt>
<pdfrwt beam="2">  1       -2 0.77772662E-02 0.79028030E+02</pdfrwt>
<totfact> 0.12590130E+05</totfact>
</mgrwt>
</event>
<event>
 5      1 +7.5707000e+03 9.07510800e+01 7.54677100e-03 1.30104300e-01
       -2 -1    0    0    0  501 -0.0000000000e+00 +0.0000000000e+00 +1.8773696158e+01 1.8773696158e+01 0.0000000000e+00 0.0000e+00 1.0000e+00
        1 -1    0    0  501    0 +0.0000000000e+00 -0.0000000000e+00 -1.0967150635e+02 1.0967150635e+02 0.0000000000e+00 0.0000e+00 -1.0000e+00
      -24  2    1    2    0    0 +0.0000000000e+00 +0.0000000000e+00 -9.0897810188e+01 1.2844520250e+02 9.0751077951e+01 0.0000e+00 0.0000e+00
       11  1    3    3    0    0 -3.3536291853e+01 +1.9169432393e+01 -7.9144800712e+01 8.8068436396e+01 0.0000000000e+00 0.0000e+00 -1.0000e+00
      -12  1    3    3    0    0 +3.3536291853e+01 -1.9169432393e+01 -1.1753009476e+01 4.0376766107e+01 0.0000000000e+00 0.0000e+00 1.0000e+00
<mgrwt>
<rscale>  0 0.90751078E+02</rscale>
<asrwt>0</asrwt>
<pdfrwt beam="1">  1        1 0.16872539E-01 0.90751078E+02</pdfrwt>
<pdfrwt beam="2">  1       -2 0.28882610E-02 0.90751078E+02</pdfrwt>
<totfact> 0.10599862E+05</totfact>
</mgrwt>
</event>
<event>
 5      1 +7.5707000e+03 8.03376500e+01 7.54677100e-03 1.32809600e-01
       -2 -1    0    0    0  501 -0.0000000000e+00 +0.0000000000e+00 +1.0607842842e+01 1.0607842842e+01 0.0000000000e+00 0.0000e+00 1.0000e+00
        1 -1    0    0  501    0 +0.0000000000e+00 -0.0000000000e+00 -1.5210768145e+02 1.5210768145e+02 0.0000000000e+00 0.0000e+00 -1.0000e+00
      -24  2    1    2    0    0 +0.0000000000e+00 +0.0000000000e+00 -1.4149983860e+02 1.6271552429e+02 8.0337646962e+01 0.0000e+00 0.0000e+00
       11  1    3    3    0    0 -2.0521099228e+01 -3.0434613476e+01 -3.7707205926e+01 5.2623327429e+01 0.0000000000e+00 0.0000e+00 -1.0000e+00
      -12  1    3    3    0    0 +2.0521099228e+01 +3.0434613476e+01 -1.0379263268e+02 1.1009219686e+02 0.0000000000e+00 0.0000e+00 1.0000e+00
<mgrwt>
<rscale>  0 0.80337647E+02</rscale>
<asrwt>0</asrwt>
<pdfrwt beam="1">  1        1 0.23401183E-01 0.80337647E+02</pdfrwt>
<pdfrwt beam="2">  1       -2 0.16319757E-02 0.80337647E+02</pdfrwt>
<totfact> 0.15652077E+05</totfact>
</mgrwt>
</event>
<event>
 5      1 +7.5707000e+03 8.00484100e+01 7.54677100e-03 1.32891400e-01
       -2 -1    0    0    0  501 -0.0000000000e+00 +0.0000000000e+00 +1.6946421252e+01 1.6946421252e+01 0.0000000000e+00 0.0000e+00 1.0000e+00
        1 -1    0    0  501    0 +0.0000000000e+00 -0.0000000000e+00 -9.4529525717e+01 9.4529525717e+01 0.0000000000e+00 0.0000e+00 -1.0000e+00
      -24  2    1    2    0    0 +0.0000000000e+00 +0.0000000000e+00 -7.7583104465e+01 1.1147594697e+02 8.0048414440e+01 0.0000e+00 0.0000e+00
       11  1    3    3    0    0 -9.6713838389e+00 +3.8327240018e+01 -3.0047560866e+01 4.9652481376e+01 0.0000000000e+00 0.0000e+00 -1.0000e+00
      -12  1    3    3    0    0 +9.6713838389e+00 -3.8327240018e+01 -4.7535543599e+01 6.1823465593e+01 0.0000000000e+00 0.0000e+00 1.0000e+00
<mgrwt>
<rscale>  0 0.80048414E+02</rscale>
<asrwt>0</asrwt>
<pdfrwt beam="1">  1        1 0.14543004E-01 0.80048414E+02</pdfrwt>
<pdfrwt beam="2">  1       -2 0.26071417E-02 0.80048414E+02</pdfrwt>
<totfact> 0.14537675E+05</totfact>
</mgrwt>
</event>
<event>
 5      1 +7.5707000e+03 7.92704600e+01 7.54677100e-03 1.33113500e-01
       -4 -1    0    0    0  501 -0.0000000000e+00 +0.0000000000e+00 +2.8293310252e+02 2.8293310252e+02 0.0000000000e+00 0.0000e+00 1.0000e+00
        3 -1    0    0  501    0 +0.0000000000e+00 -0.0000000000e+00 -5.5523774945e+00 5.5523774945e+00 0.0000000000e+00 0.0000e+00 -1.0000e+00
      -24  2    1    2    0    0 +0.0000000000e+00 +0.0000000000e+00 +2.7738072502e+02 2.8848548001e+02 7.9270458328e+01 0.0000e+00 0.0000e+00
       11  1    3    3    0    0 -6.8994074789e+00 -3.8381910699e+01 +1.1291104470e+02 1.1945575293e+02 0.0000000000e+00 0.0000e+00 -1.0000e+00
      -12  1    3    3    0    0 +6.8994074789e+00 +3.8381910699e+01 +1.6446968032e+02 1.6902972708e+02 0.0000000000e+00 0.0000e+00 1.0000e+00
<mgrwt>
<rscale>  0 0.79270458E+02</rscale>
<asrwt>0</asrwt>
<pdfrwt beam="1">  1        3 0.85421215E-03 0.79270458E+02</pdfrwt>
<pdfrwt beam="2">  1       -4 0.43528158E-01 0.79270458E+02</pdfrwt>
<totfact> 0.28909287E+04</totfact>
</mgrwt>
</event>
<event>
 5      1 +7.5707000e+03 7.84121100e+01 7.54677100e-03 1.33361900e-01
       -2 -1    0    0    0  501 -0.0000000000e+00 +0.0000000000e+00 +4.5078626104e+01 4.5078626104e+01 0.0000000000e+00 0.0000e+00 1.0000e+00
        1 -1    0    0  501    0 +0.0000000000e+00 -0.0000000000e+00 -3.4098524612e+01 3.4098524612e+01 0.0000000000e+00 0.0000e+00 -1.0000e+00
      -24  2    1    2    0    0 +0.0000000000e+00 +0.0000000000e+00 +1.0980101492e+01 7.9177150716e+01 7.8412107272e+01 0.0000e+00 0.0000e+00
       11  1    3    3    0    0 -1.1380848459e+01 -2.1490593144e+01 -2.5562969604e+01 3.5282215354e+01 0.0000000000e+00 0.0000e+00 -1.0000e+00
      -12  1    3    3    0    0 +1.1380848459e+01 +2.1490593144e+01 +3.6543071095e+01 4.3894935362e+01 0.0000000000e+00 0.0000e+00 1.0000e+00
<mgrwt>
<rscale>  0 0.78412107E+02</rscale>
<asrwt>0</asrwt>
<pdfrwt beam="1">  1        1 0.52459269E-02 0.78412107E+02</pdfrwt>
<pdfrwt beam="2">  1       -2 0.69351732E-02 0.78412107E+02</pdfrwt>
<totfact> 0.13090866E+05</totfact>
</mgrwt>
</event>
<event>
 5      1 +7.5707000e+03 7.98763600e+01 7.54677100e-03 1.32940300e-01
       -2 -1    0    0    0  501 -0.0000000000e+00 +0.0000000000e+00 +1.1397517261e+02 1.1397517261e+02 0.0000000000e+00 0.0000e+00 1.0000e+00
        1 -1    0    0  501    0 +0.0000000000e+00 -0.0000000000e+00 -1.3994786487e+01 1.3994786487e+01 0.0000000000e+00 0.0000e+00 -1.0000e+00
      -24  2    1    2    0    0 +0.0000000000e+00 +0.0000000000e+00 +9.9980386123e+01 1.2796995910e+02 7.9876359595e+01 0.0000e+00 0.0000e+00
       11  1    3    3    0    0 -3.7277293425e+01 +7.4085592664e-01 +2.7056487077e+01 4.6067330784e+01 0.0000000000e+00 0.0000e+00 -1.0000e+00
      -12  1    3    3    0    0 +3.7277293425e+01 -7.4085592664e-01 +7.2923899045e+01 8.1902628313e+01 0.0000000000e+00 0.0000e+00 1.0000e+00
<mgrwt>
<rscale>  0 0.79876360E+02</rscale>
<asrwt>0</asrwt>
<pdfrwt beam="1">  1        1 0.21530442E-02 0.79876360E+02</pdfrwt>
<pdfrwt beam="2">  1       -2 0.17534641E-01 0.79876360E+02</pdfrwt>
<totfact> 0.10299780E+05</totfact>
</mgrwt>
</event>
<event>
 5      1 +7.5707000e+03 8.30070500e+01 7.54677100e-03 1.32072800e-01
        1 -1    0    0  501    0 +0.0000000000e+00 +0.0000000000e+00 +2.2091145073e+02 2.2091145073e+02 0.0000000000e+00 0.0000e+00 -1.0000e+00
       -2 -1    0    0    0  501 -0.0000000000e+00 -0.0000000000e+00 -7.7974354074e+00 7.7974354074e+00 0.0000000000e+00 0.0000e+00 1.0000e+00
      -24  2    1    2    0    0 +0.0000000000e+00 +0.0000000000e+00 +2.1311401532e+02 2.2870888614e+02 8.3007054346e+01 0.0000e+00 0.0000e+00
       13  1    3    3    0    0 -3.7004145265e+01 +3.5015355480e+00 +1.5743494129e+02 1.6176318573e+02 0.0000000000e+00 0.0000e+00 -1.0000e+00
      -14  1    3    3    0    0 +3.7004145265e+01 -3.5015355480e+00 +5.5679074027e+01 6.6945700404e+01 0.0000000000e+00 0.0000e+00 1.0000e+00
<mgrwt>
<rscale>  0 0.83007054E+02</rscale>
<asrwt>0</asrwt>
<pdfrwt beam="1">  1        1 0.33986372E-01 0.83007054E+02</pdfrwt>
<pdfrwt beam="2">  1       -2 0.11996056E-02 0.83007054E+02</pdfrwt>
<totfact> 0.15413314E+05</totfact>
</mgrwt>
</event>
<event>
 5      1 +7.5707000e+03 8.07850500e+01 7.54677100e-03 1.32683800e-01
        1 -1    0    0  501    0 +0.0000000000e+00 +0.0000000000e+00 +1.0493004079e+02 1.0493004079e+02 0.0000000000e+00 0.0000e+00 -1.0000e+00
       -2 -1    0    0    0  501 -0.0000000000e+00 -0.0000000000e+00 -1.5548989718e+01 1.5548989718e+01 0.0000000000e+00 0.0000e+00 1.0000e+00
      -24  2    1    2    0    0 +0.0000000000e+00 +0.0000000000e+00 +8.9381051074e+01 1.2047903051e+02 8.0785051224e+01 0.0000e+00 0.0000e+00
       11  1    3    3    0    0 -2.4927148030e+01 -1.0898813067e+01 +8.9217074604e+01 9.3272896578e+01 0.0000000000e+00 0.0000e+00 -1.0000e+00
      -12  1    3    3    0    0 +2.4927148030e+01 +1.0898813067e+01 +1.6397647010e-01 2.7206133931e+01 0.0000000000e+00 0.0000e+00 1.0000e+00
<mgrwt>
<rscale>  0 0.80785051E+02</rscale>
<asrwt>0</asrwt>
<pdfrwt beam="1">  1        1 0.16143083E-01 0.80785051E+02</pdfrwt>
<pdfrwt beam="2">  1       -2 0.23921523E-02 0.80785051E+02</pdfrwt>
<totfact> 0.14433545E+05</totfact>
</mgrwt>
</event>
<event>
 5      1 +7.5707000e+03 8.05804600e+01 7.54677100e-03 1.32741200e-01
       -2 -1    0    0    0  501 -0.0000000000e+00 +0.0000000000e+00 +1.5385606177e+02 1.5385606177e+02 0.0000000000e+00 0.0000e+00 1.0000e+00
        1 -1    0    0  501    0 +0.0000000000e+00 -0.0000000000e+00 -1.0550788507e+01 1.0550788507e+01 0.0000000000e+00 0.0000e+00 -1.0000e+00
      -24  2    1    2    0    0 +0.0000000000e+00 +0.0000000000e+00 +1.4330527326e+02 1.6440685027e+02 8.0580463345e+01 0.0000e+00 0.0000e+00
       11  1    3    3    0    0 -3.1294653085e+01 +1.2616245201e+01 +2.6730384954e+01 4.3046932928e+01 0.0000000000e+00 0.0000e+00 -1.0000e+00
      -12  1    3    3    0    0 +3.1294653085e+01 -1.2616245201e+01 +1.1657488831e+02 1.2135991735e+02 0.0000000000e+00 0.0000e+00 1.0000e+00
<mgrwt>
<rscale>  0 0.80580463E+02</rscale>
<asrwt>0</asrwt>
<pdfrwt beam="1">  1        1 0.16231983E-02 0.80580463E+02</pdfrwt>
<pdfrwt beam="2">  1       -2 0.23670162E-01 0.80580463E+02</pdfrwt>
<totfact> 0.91989775E+04</totfact>
</mgrwt>
</event>
<event>
 5      1 +7.5707000e+03 8.01156000e+01 7.54677100e-03 1.32872400e-01
       -4 -1    0    0    0  501 -0.0000000000e+00 +0.0000000000e+00 +1.3527289843e+01 1.3527289843e+01 0.0000000000e+00 0.0000e+00 1.0000e+00
        3 -1    0    0  501    0 +0.0000000000e+00 -0.0000000000e+00 -1.1862149620e+02 1.1862149620e+02 0.0000000000e+00 0.0000e+00 -1.0000e+00
      -24  2    1    2    0    0 +0.0000000000e+00 +0.0000000000e+00 -1.0509420636e+02 1.3214878604e+02 8.0115600495e+01 0.0000e+00 0.0000e+00
       11  1    3    3    0    0 -2.9451455220e+01 -2.3772430076e+01 -7.4186743567e+01 8.3283789343e+01 0.0000000000e+00 0.0000e+00 -1.0000e+00
      -12  1    3    3    0    0 +2.9451455220e+01 +2.3772430076e+01 -3.0907462789e+01 4.8864996698e+01 0.0000000000e+00 0.0000e+00 1.0000e+00
<mgrwt>
<rscale>  0 0.80115600E+02</rscale>
<asrwt>0</asrwt>
<pdfrwt beam="1">  1        3 0.18249460E-01 0.80115600E+02</pdfrwt>
<pdfrwt beam="2">  1       -4 0.20811216E-02 0.80115600E+02</pdfrwt>
<totfact> 0.41194210E+04</totfact>
</mgrwt>
</event>
<event>
 5      1 +7.5707000e+03 7.73313200e+01 7.54677100e-03 1.33680000e-01
       -2 -1    0    0    0  501 -0.0000000000e+00 +0.0000000000e+00 +1.6347606577e+02 1.6347606577e+02 0.0000000000e+00 0.0000e+00 1.0000e+00
        1 -1    0    0  501    0 +0.0000000000e+00 -0.0000000000e+00 -9.1452720415e+00 9.1452720415e+00 0.0000000000e+00 0.0000e+00 -1.0000e+00
      -24  2    1    2    0    0 +0.0000000000e+00 +0.0000000000e+00 +1.5433079373e+02 1.7262133781e+02 7.7331315616e+01 0.0000e+00 0.0000e+00
       13  1    3    3    0    0 +3.8160304211e+01 -5.7665422313e+00 +7.1896544084e+01 8.1600091165e+01 0.0000000000e+00 0.0000e+00 -1.0000e+00
      -14  1    3    3    0    0 -3.8160304211e+01 +5.7665422313e+00 +8.2434249643e+01 9.1021246646e+01 0.0000000000e+00 0.0000e+00 1.0000e+00
<mgrwt>
<rscale>  0 0.77331316E+02</rscale>
<asrwt>0</asrwt>
<pdfrwt beam="1">  1        1 0.14069650E-02 0.77331316E+02</pdfrwt>
<pdfrwt beam="2">  1       -2 0.25150162E-01 0.77331316E+02</pdfrwt>
<totfact> 0.10016898E+05</totfact>
</mgrwt>
</event>
<event>
 5      1 +7.5707000e+03 7.51818100e+01 7.54677100e-03 1.34330900e-01
        1 -1    0    0  501    0 +0.0000000000e+00 +0.0000000000e+00 +6.8862982083e-01 6.8862982083e-01 0.0000000000e+00 0.0000e+00 -1.0000e+00
       -2 -1    0    0    0  501 -0.0000000000e+00 -0.0000000000e+00 -2.0520114997e+03 2.0520114997e+03 0.0000000000e+00 0.0000e+00 1.0000e+00
      -24  2    1    2    0    0 +0.0000000000e+00 +0.0000000000e+00 -2.0513228699e+03 2.0527001296e+03 7.5181814594e+01 0.0000e+00 0.0000e+00
       13  1    3    3    0    0 +4.5445207783e+00 -1.0929294771e+01 -5.1518915794e+01 5.2861146770e+01 0.0000000000e+00 0.0000e+00 -1.0000e+00
      -14  1    3    3    0    0 -4.5445207783e+00 +1.0929294771e+01 -1.9998039541e+03 1.9998389828e+03 0.0000000000e+00 0.0000e+00 1.0000e+00
<mgrwt>
<rscale>  0 0.75181815E+02</rscale>
<asrwt>0</asrwt>
<pdfrwt beam="1">  1        1 0.10594212E-03 0.75181815E+02</pdfrwt>
<pdfrwt beam="2">  1       -2 0.31569683E+00 0.75181815E+02</pdfrwt>
<totfact> 0.89014878E+03</totfact>
</mgrwt>
</event>
<event>
 5      1 +7.5707000e+03 8.07870800e+01 7.54677100e-03 1.32683300e-01
        1 -1    0    0  501    0 +0.0000000000e+00 +0.0000000000e+00 +2.6216576870e+02 2.6216576870e+02 0.0000000000e+00 0.0000e+00 -1.0000e+00
       -2 -1    0    0    0  501 -0.0000000000e+00 -0.0000000000e+00 -6.2236880784e+00 6.2236880784e+00 0.0000000000e+00 0.0000e+00 1.0000e+00
      -24  2    1    2    0    0 +0.0000000000e+00 +0.0000000000e+00 +2.5594208062e+02 2.6838945678e+02 8.0787077413e+01 0.0000e+00 0.0000e+00
       11  1    3    3    0    0 -2.6132184763e+01 -2.0778136323e+01 +5.2431294264e+01 6.2158367480e+01 0.0000000000e+00 0.0000e+00 -1.0000e+00
      -12  1    3    3    0    0 +2.6132184763e+01 +2.0778136323e+01 +2.0351078636e+02 2.0623108930e+02 0.0000000000e+00 0.0000e+00 1.0000e+00
<mgrwt>
<rscale>  0 0.80787077E+02</rscale>
<asrwt>0</asrwt>
<pdfrwt beam="1">  1        1 0.40333187E-01 0.80787077E+02</pdfrwt>
<pdfrwt beam="2">  1       -2 0.95749068E-03 0.80787077E+02</pdfrwt>
<totfact> 0.17128435E+05</totfact>
</mgrwt>
</event>
<event>
 5      1 +7.5707000e+03 7.90127200e+01 7.54677100e-03 1.33187700e-01
        1 -1    0    0  501    0 +0.0000000000e+00 +0.0000000000e+00 +8.3815432103e+01 8.3815432103e+01 0.0000000000e+00 0.0000e+00 -1.0000e+00
       -2 -1    0    0    0  501 -0.0000000000e+00 -0.0000000000e+00 -1.8621300034e+01 1.8621300034e+01 0.0000000000e+00 0.0000e+00 1.0000e+00
      -24  2    1    2    0    0 +0.0000000000e+00 +0.0000000000e+00 +6.5194132069e+01 1.0243673214e+02 7.9012715652e+01 0.0000e+00 0.0000e+00
       11  1    3    3    0    0 +1.6977509247e+01 +3.1352277797e+01 +5.4657872536e+01 6.5258594633e+01 0.0000000000e+00 0.0000e+00 -1.0000e+00
      -12  1    3    3    0    0 -1.6977509247e+01 -3.1352277797e+01 +1.0536259532e+01 3.7178137504e+01 0.0000000000e+00 0.0000e+00 1.0000e+00
<mgrwt>
<rscale>  0 0.79012716E+02</rscale>
<asrwt>0</asrwt>
<pdfrwt beam="1">  1        1 0.12894682E-01 0.79012716E+02</pdfrwt>
<pdfrwt beam="2">  1       -2 0.28648154E-02 0.79012716E+02</pdfrwt>
<totfact> 0.14766393E+05</totfact>
</mgrwt>
</event>
<event>
 5      1 +7.5707000e+03 8.05222700e+01 7.54677100e-03 1.32757600e-01
       -2 -1    0    0    0  501 -0.0000000000e+00 +0.0000000000e+00 +8.0084882986e+01 8.0084882986e+01 0.0000000000e+00 0.0000e+00 1.0000e+00
        1 -1    0    0  501    0 +0.0000000000e+00 -0.0000000000e+00 -2.0240513711e+01 2.0240513711e+01 0.0000000000e+00 0.0000e+00 -1.0000e+00
      -24  2    1    2    0    0 +0.0000000000e+00 +0.0000000000e+00 +5.9844369275e+01 1.0032539670e+02 8.0522274487e+01 0.0000e+00 0.0000e+00
       13  1    3    3    0    0 -3.6224760312e+01 +1.7570163944e+01 +3.0076053286e+01 5.0254481412e+01 0.0000000000e+00 0.0000e+00 -1.0000e+00
      -14  1    3    3    0    0 +3.6224760312e+01 -1.7570163944e+01 +2.9768315989e+01 5.0070915285e+01 0.0000000000e+00 0.0000e+00 1.0000e+00
<mgrwt>
<rscale>  0 0.80522274E+02</rscale>
<asrwt>0</asrwt>
<pdfrwt beam="1">  1        1 0.31139252E-02 0.80522274E+02</pdfrwt>
<pdfrwt beam="2">  1       -2 0.12320751E-01 0.80522274E+02</pdfrwt>
<totfact> 0.10989673E+05</totfact>
</mgrwt>
</event>
<event>
 5      1 +7.5707000e+03 7.93213600e+01 7.54677100e-03 1.33098800e-01
        3 -1    0    0  501    0 +0.0000000000e+00 +0.0000000000e+00 +2.6499159529e+01 2.6499159529e+01 0.0000000000e+00 0.0000e+00 -1.0000e+00
       -4 -1    0    0    0  501 -0.0000000000e+00 -0.0000000000e+00 -5.9359224076e+01 5.9359224076e+01 0.0000000000e+00 0.0000e+00 1.0000e+00
      -24  2    1    2    0    0 +0.0000000000e+00 +0.0000000000e+00 -3.2860064547e+01 8.5858383605e+01 7.9321360258e+01 0.0000e+00 0.0000e+00
       11  1    3    3    0    0 +9.3002043071e+00 +1.6913662418e+01 +2.1072123252e+01 2.8576216595e+01 0.0000000000e+00 0.0000e+00 -1.0000e+00
      -12  1    3    3    0    0 -9.3002043071e+00 -1.6913662418e+01 -5.3932187799e+01 5.7282167010e+01 0.0000000000e+00 0.0000e+00 1.0000e+00
<mgrwt>
<rscale>  0 0.79321360E+02</rscale>
<asrwt>0</asrwt>
<pdfrwt beam="1">  1        3 0.40767938E-02 0.79321360E+02</pdfrwt>
<pdfrwt beam="2">  1       -4 0.91321882E-02 0.79321360E+02</pdfrwt>
<totfact> 0.45002884E+04</totfact>
</mgrwt>
</event>
<event>
 5      1 +7.5707000e+03 8.09570900e+01 7.54677100e-03 1.32635700e-01
        1 -1    0    0  501    0 +0.0000000000e+00 +0.0000000000e+00 +2.4996550867e+01 2.4996550867e+01 0.0000000000e+00 0.0000e+00 -1.0000e+00
       -2 -1    0    0    0  501 -0.0000000000e+00 -0.0000000000e+00 -6.5549546795e+01 6.5549546795e+01 0.0000000000e+00 0.0000e+00 1.0000e+00
      -24  2    1    2    0    0 +0.0000000000e+00 +0.0000000000e+00 -4.0552995928e+01 9.0546097662e+01 8.0957089394e+01 0.0000e+00 0.0000e+00
       11  1    3    3    0    0 +3.8637725174e+00 +1.4499996953e+01 +2.1770717937e+01 2.6441308765e+01 0.0000000000e+00 0.0000e+00 -1.0000e+00
      -12  1    3    3    0    0 -3.8637725174e+00 -1.4499996953e+01 -6.2323713865e+01 6.4104788898e+01 0.0000000000e+00 0.0000e+00 1.0000e+00
<mgrwt>
<rscale>  0 0.80957089E+02</rscale>
<asrwt>0</asrwt>
<pdfrwt beam="1">  1        1 0.38456232E-02 0.80957089E+02</pdfrwt>
<pdfrwt beam="2">  1       -2 0.10084546E-01 0.80957089E+02</pdfrwt>
<totfact> 0.11295398E+05</totfact>
</mgrwt>
</event>
<event>
 5      1 +7.5707000e+03 8.09378700e+01 7.54677100e-03 1.32641100e-01
       -2 -1    0    0    0  501 -0.0000000000e+00 +0.0000000000e+00 +1.3924495228e+01 1.3924495228e+01 0.0000000000e+00 0.0000e+00 1.0000e+00
        1 -1    0    0  501    0 +0.0000000000e+00 -0.0000000000e+00 -1.1761537818e+02 1.1761537818e+02 0.0000000000e+00 0.0000e+00 -1.0000e+00
      -24  2    1    2    0    0 +0.0000000000e+00 +0.0000000000e+00 -1.0369088296e+02 1.3153987341e+02 8.0937871783e+01 0.0000e+00 0.0000e+00
       11  1    3    3    0    0 -4.0244865395e+00 +3.9447366529e+01 -3.8698065652e+01 5.5406060167e+01 0.0000000000e+00 0.0000e+00 -1.0000e+00
      -12  1    3    3    0    0 +4.0244865395e+00 -3.9447366529e+01 -6.4992817303e+01 7.6133813243e+01 0.0000000000e+00 0.0000e+00 1.0000e+00
<mgrwt>
<rscale>  0 0.80937872E+02</rscale>
<asrwt>0</asrwt>
<pdfrwt beam="1">  1        1 0.18094674E-01 0.80937872E+02</pdfrwt>
<pdfrwt beam="2">  1       -2 0.21422300E-02 0.80937872E+02</pdfrwt>
<totfact> 0.14646538E+05</totfact>
</mgrwt>
</event>
<event>
 5      1 +7.5707000e+03 8.02538700e+01 7.54677100e-03 1.32833300e-01
       -2 -1    0    0    0  501 -0.0000000000e+00 +0.0000000000e+00 +1.1563460706e+02 1.1563460706e+02 0.0000000000e+00 0.0000e+00 1.0000e+00
        1 -1    0    0  501    0 +0.0000000000e+00 -0.0000000000e+00 -1.3924644791e+01 1.3924644791e+01 0.0000000000e+00 0.0000e+00 -1.0000e+00
      -24  2    1    2    0    0 +0.0000000000e+00 +0.0000000000e+00 +1.0170996227e+02 1.2955925185e+02 8.0253867917e+01 0.0000e+00 0.0000e+00
       11  1    3    3    0    0 -4.0954937076e+00 -1.7153448459e+01 -7.3329976504e+00 1.9099390495e+01 0.0000000000e+00 0.0000e+00 -1.0000e+00
      -12  1    3    3    0    0 +4.0954937076e+00 +1.7153448459e+01 +1.0904295992e+02 1.1045986136e+02 0.0000000000e+00 0.0000e+00 1.0000e+00
<mgrwt>
<rscale>  0 0.80253868E+02</rscale>
<asrwt>0</asrwt>
<pdfrwt beam="1">  1        1 0.21422531E-02 0.80253868E+02</pdfrwt>
<pdfrwt beam="2">  1       -2 0.17789939E-01 0.80253868E+02</pdfrwt>
<totfact> 0.10136033E+05</totfact>
</mgrwt>
</event>
<event>
 5      1 +7.5707000e+03 7.82629600e+01 7.54677100e-03 1.33405400e-01
        1 -1    0    0  501    0 +0.0000000000e+00 +0.0000000000e+00 +3.8661370057e+01 3.8661370057e+01 0.0000000000e+00 0.0000e+00 -1.0000e+00
       -2 -1    0    0    0  501 -0.0000000000e+00 -0.0000000000e+00 -3.9607302027e+01 3.9607302027e+01 0.0000000000e+00 0.0000e+00 1.0000e+00
      -24  2    1    2    0    0 +0.0000000000e+00 +0.0000000000e+00 -9.4593197050e-01 7.8268672084e+01 7.8262955749e+01 0.0000e+00 0.0000e+00
       11  1    3    3    0    0 +2.6735397693e+01 -1.7815593668e+01 +2.1869115470e+01 3.8864316268e+01 0.0000000000e+00 0.0000e+00 -1.0000e+00
      -12  1    3    3    0    0 -2.6735397693e+01 +1.7815593668e+01 -2.2815047440e+01 3.9404355816e+01 0.0000000000e+00 0.0000e+00 1.0000e+00
<mgrwt>
<rscale>  0 0.78262956E+02</rscale>
<asrwt>0</asrwt>
<pdfrwt beam="1">  1        1 0.59479031E-02 0.78262956E+02</pdfrwt>
<pdfrwt beam="2">  1       -2 0.60934311E-02 0.78262956E+02</pdfrwt>
<totfact> 0.13432964E+05</totfact>
</mgrwt>
</event>
<event>
 5      1 +7.5707000e+03 8.02679300e+01 7.54677100e-03 1.32829300e-01
        1 -1    0    0  501    0 +0.0000000000e+00 +0.0000000000e+00 +1.3052982067e+02 1.3052982067e+02 0.0000000000e+00 0.0000e+00 -1.0000e+00
       -2 -1    0    0    0  501 -0.0000000000e+00 -0.0000000000e+00 -1.2339979351e+01 1.2339979351e+01 0.0000000000e+00 0.0000e+00 1.0000e+00
      -24  2    1    2    0    0 +0.0000000000e+00 +0.0000000000e+00 +1.1818984132e+02 1.4286980003e+02 8.0267933619e+01 0.0000e+00 0.0000e+00
       13  1    3    3    0    0 -8.0299956008e+00 -3.5898831814e+01 +8.7658384057e+01 9.5064184899e+01 0.0000000000e+00 0.0000e+00 -1.0000e+00
      -14  1    3    3    0    0 +8.0299956008e+00 +3.5898831814e+01 +3.0531457266e+01 4.7805615128e+01 0.0000000000e+00 0.0000e+00 1.0000e+00
<mgrwt>
<rscale>  0 0.80267934E+02</rscale>
<asrwt>0</asrwt>
<pdfrwt beam="1">  1        1 0.20081510E-01 0.80267934E+02</pdfrwt>
<pdfrwt beam="2">  1       -2 0.18984585E-02 0.80267934E+02</pdfrwt>
<totfact> 0.15256852E+05</totfact>
</mgrwt>
</event>
<event>
 5      1 +7.5707000e+03 8.02787900e+01 7.54677100e-03 1.32826200e-01
        1 -1    0    0  501    0 +0.0000000000e+00 +0.0000000000e+00 +2.2485119197e+01 2.2485119197e+01 0.0000000000e+00 0.0000e+00 -1.0000e+00
       -2 -1    0    0    0  501 -0.0000000000e+00 -0.0000000000e+00 -7.1654996308e+01 7.1654996308e+01 0.0000000000e+00 0.0000e+00 1.0000e+00
      -24  2    1    2    0    0 +0.0000000000e+00 +0.0000000000e+00 -4.9169877111e+01 9.4140115505e+01 8.0278792543e+01 0.0000e+00 0.0000e+00
       11  1    3    3    0    0 -1.5110700242e+01 +2.7503668644e+01 -5.3934049158e+01 6.2399252474e+01 0.0000000000e+00 0.0000e+00 -1.0000e+00
      -12  1    3    3    0    0 +1.5110700242e+01 -2.7503668644e+01 +4.7641720473e+00 3.1740863031e+01 0.0000000000e+00 0.0000e+00 1.0000e+00
<mgrwt>
<rscale>  0 0.80278793E+02</rscale>
<asrwt>0</asrwt>
<pdfrwt beam="1">  1        1 0.34592490E-02 0.80278793E+02</pdfrwt>
<pdfrwt beam="2">  1       -2 0.11023846E-01 0.80278793E+02</pdfrwt>
<totfact> 0.11336300E+05</totfact>
</mgrwt>
</event>
<event>
 5      1 +7.5707000e+03 7.69813600e+01 7.54677100e-03 1.33784300e-01
        1 -1    0    0  501    0 +0.0000000000e+00 +0.0000000000e+00 +3.1028245427e+02 3.1028245427e+02 0.0000000000e+00 0.0000e+00 -1.0000e+00
       -2 -1    0    0    0  501 -0.0000000000e+00 -0.0000000000e+00 -4.7747862508e+00 4.7747862508e+00 0.0000000000e+00 0.0000e+00 1.0000e+00
      -24  2    1    2    0    0 +0.0000000000e+00 +0.0000000000e+00 +3.0550766802e+02 3.1505724052e+02 7.6981358692e+01 0.0000e+00 0.0000e+00
       13  1    3    3    0    0 +3.7310822754e+01 +9.2371723192e+00 +1.4445721782e+02 1.4948347945e+02 0.0000000000e+00 0.0000e+00 -1.0000e+00
      -14  1    3    3    0    0 -3.7310822754e+01 -9.2371723192e+00 +1.6105045020e+02 1.6557376107e+02 0.0000000000e+00 0.0000e+00 1.0000e+00
<mgrwt>
<rscale>  0 0.76981359E+02</rscale>
<asrwt>0</asrwt>
<pdfrwt beam="1">  1        1 0.47735746E-01 0.76981359E+02</pdfrwt>
<pdfrwt beam="2">  1       -2 0.73458274E-03 0.76981359E+02</pdfrwt>
<totfact> 0.20089804E+05</totfact>
</mgrwt>
</event>
<event>
 5      1 +7.5707000e+03 6.48374800e+01 7.54677100e-03 1.37858400e-01
        1 -1    0    0  501    0 +0.0000000000e+00 +0.0000000000e+00 +1.6876106720e+01 1.6876106720e+01 0.0000000000e+00 0.0000e+00 -1.0000e+00
       -2 -1    0    0    0  501 -0.0000000000e+00 -0.0000000000e+00 -6.2275895818e+01 6.2275895818e+01 0.0000000000e+00 0.0000e+00 1.0000e+00
      -24  2    1    2    0    0 +0.0000000000e+00 +0.0000000000e+00 -4.5399789098e+01 7.9152002538e+01 6.4837478788e+01 0.0000e+00 0.0000e+00
       11  1    3    3    0    0 -2.2385674896e+01 -4.3200542793e+00 +5.4360892052e+00 2.3437840672e+01 0.0000000000e+00 0.0000e+00 -1.0000e+00
      -12  1    3    3    0    0 +2.2385674896e+01 +4.3200542793e+00 -5.0835878303e+01 5.5714161865e+01 0.0000000000e+00 0.0000e+00 1.0000e+00
<mgrwt>
<rscale>  0 0.64837479E+02</rscale>
<asrwt>0</asrwt>
<pdfrwt beam="1">  1        1 0.25963241E-02 0.64837479E+02</pdfrwt>
<pdfrwt beam="2">  1       -2 0.95809069E-02 0.64837479E+02</pdfrwt>
<totfact> 0.19967430E+05</totfact>
</mgrwt>
</event>
<event>
 5      1 +7.5707000e+03 8.01353800e+01 7.54677100e-03 1.32866800e-01
       -2 -1    0    0    0  501 -0.0000000000e+00 +0.0000000000e+00 +1.0857862063e+01 1.0857862063e+01 0.0000000000e+00 0.0000e+00 1.0000e+00
        1 -1    0    0  501    0 +0.0000000000e+00 -0.0000000000e+00 -1.4785780087e+02 1.4785780087e+02 0.0000000000e+00 0.0000e+00 -1.0000e+00
      -24  2    1    2    0    0 +0.0000000000e+00 +0.0000000000e+00 -1.3699993881e+02 1.5871566293e+02 8.0135375630e+01 0.0000e+00 0.0000e+00
       11  1    3    3    0    0 -2.9673575243e+01 -2.4453078569e+01 -9.0815342099e+01 9.8619980125e+01 0.0000000000e+00 0.0000e+00 -1.0000e+00
      -12  1    3    3    0    0 +2.9673575243e+01 +2.4453078569e+01 -4.6184596708e+01 6.0095682809e+01 0.0000000000e+00 0.0000e+00 1.0000e+00
<mgrwt>
<rscale>  0 0.80135376E+02</rscale>
<asrwt>0</asrwt>
<pdfrwt beam="1">  1        1 0.22747352E-01 0.80135376E+02</pdfrwt>
<pdfrwt beam="2">  1       -2 0.16704405E-02 0.80135376E+02</pdfrwt>
<totfact> 0.15675644E+05</totfact>
</mgrwt>
</event>
<event>
 5      1 +7.5707000e+03 7.93705800e+01 7.54677100e-03 1.33084700e-01
       -2 -1    0    0    0  501 -0.0000000000e+00 +0.0000000000e+00 +8.5354802570e+01 8.5354802570e+01 0.0000000000e+00 0.0000e+00 1.0000e+00
        1 -1    0    0  501    0 +0.0000000000e+00 -0.0000000000e+00 -1.8451477469e+01 1.8451477469e+01 0.0000000000e+00 0.0000e+00 -1.0000e+00
      -24  2    1    2    0    0 +0.0000000000e+00 +0.0000000000e+00 +6.6903325101e+01 1.0380628004e+02 7.9370579348e+01 0.0000e+00 0.0000e+00
       13  1    3    3    0    0 -1.8382797330e+01 -3.4732086326e+01 +2.6207775976e+01 4.7234442727e+01 0.0000000000e+00 0.0000e+00 -1.0000e+00
      -14  1    3    3    0    0 +1.8382797330e+01 +3.4732086326e+01 +4.0695549125e+01 5.6571837311e+01 0.0000000000e+00 0.0000e+00 1.0000e+00
<mgrwt>
<rscale>  0 0.79370579E+02</rscale>
<asrwt>0</asrwt>
<pdfrwt beam="1">  1        1 0.28386889E-02 0.79370579E+02</pdfrwt>
<pdfrwt beam="2">  1       -2 0.13131508E-01 0.79370579E+02</pdfrwt>
<totfact> 0.11241897E+05</totfact>
</mgrwt>
</event>
<event>
 5      1 +7.5707000e+03 7.70252000e+01 7.54677100e-03 1.33771200e-01
        1 -1    0    0  501    0 +0.0000000000e+00 +0.0000000000e+00 +1.5549572039e+02 1.5549572039e+02 0.0000000000e+00 0.0000e+00 -1.0000e+00
       -2 -1    0    0    0  501 -0.0000000000e+00 -0.0000000000e+00 -9.5386573670e+00 9.5386573670e+00 0.0000000000e+00 0.0000e+00 1.0000e+00
      -24  2    1    2    0    0 +0.0000000000e+00 +0.0000000000e+00 +1.4595706302e+02 1.6503437776e+02 7.7025201041e+01 0.0000e+00 0.0000e+00
       11  1    3    3    0    0 -3.0949604437e+00 +3.1754851773e+01 +1.1919476782e+02 1.2339101291e+02 0.0000000000e+00 0.0000e+00 -1.0000e+00
      -12  1    3    3    0    0 +3.0949604437e+00 -3.1754851773e+01 +2.6762295203e+01 4.1643364847e+01 0.0000000000e+00 0.0000e+00 1.0000e+00
<mgrwt>
<rscale>  0 0.77025201E+02</rscale>
<asrwt>0</asrwt>
<pdfrwt beam="1">  1        1 0.23922417E-01 0.77025201E+02</pdfrwt>
<pdfrwt beam="2">  1       -2 0.14674859E-02 0.77025201E+02</pdfrwt>
<totfact> 0.17582197E+05</totfact>
</mgrwt>
</event>
<event>
 5      1 +7.5707000e+03 8.13037300e+01 7.54677100e-03 1.32539200e-01
       -4 -1    0    0    0  501 -0.0000000000e+00 +0.0000000000e+00 +5.8905381147e+01 5.8905381147e+01 0.0000000000e+00 0.0000e+00 1.0000e+00
        3 -1    0    0  501    0 +0.0000000000e+00 -0.0000000000e+00 -2.8054721545e+01 2.8054721545e+01 0.0000000000e+00 0.0000e+00 -1.0000e+00
      -24  2    1    2    0    0 +0.0000000000e+00 +0.0000000000e+00 +3.0850659602e+01 8.6960102692e+01 8.1303728465e+01 0.0000e+00 0.0000e+00
       13  1    3    3    0    0 -6.1034496579e+00 -3.1200047485e+01 -1.1672603353e+01 3.3866572455e+01 0.0000000000e+00 0.0000e+00 -1.0000e+00
      -14  1    3    3    0    0 +6.1034496579e+00 +3.1200047485e+01 +4.2523262955e+01 5.3093530238e+01 0.0000000000e+00 0.0000e+00 1.0000e+00
<mgrwt>
<rscale>  0 0.81303728E+02</rscale>
<asrwt>0</asrwt>
<pdfrwt beam="1">  1        3 0.43161110E-02 0.81303728E+02</pdfrwt>
<pdfrwt beam="2">  1       -4 0.90623663E-02 0.81303728E+02</pdfrwt>
<totfact> 0.42052606E+04</totfact>
</mgrwt>
</event>
<event>
 5      1 +7.5707000e+03 7.97052200e+01 7.54677100e-03 1.32989000e-01
       -2 -1    0    0    0  501 -0.0000000000e+00 +0.0000000000e+00 +5.0484344373e+00 5.0484344373e+00 0.0000000000e+00 0.0000e+00 1.0000e+00
        1 -1    0    0  501    0 +0.0000000000e+00 -0.0000000000e+00 -3.1459864754e+02 3.1459864754e+02 0.0000000000e+00 0.0000e+00 -1.0000e+00
      -24  2    1    2    0    0 +0.0000000000e+00 +0.0000000000e+00 -3.0955021310e+02 3.1964708198e+02 7.9705223070e+01 0.0000e+00 0.0000e+00
       13  1    3    3    0    0 +3.7402797789e+01 -2.7806609300e+00 -2.0880788689e+02 2.1214955806e+02 0.0000000000e+00 0.0000e+00 -1.0000e+00
      -14  1    3    3    0    0 -3.7402797789e+01 +2.7806609300e+00 -1.0074232621e+02 1.0749752392e+02 0.0000000000e+00 0.0000e+00 1.0000e+00
<mgrwt>
<rscale>  0 0.79705223E+02</rscale>
<asrwt>0</asrwt>
<pdfrwt beam="1">  1        1 0.48399800E-01 0.79705223E+02</pdfrwt>
<pdfrwt beam="2">  1       -2 0.77668209E-03 0.79705223E+02</pdfrwt>
<totfact> 0.18382175E+05</totfact>
</mgrwt>
</event>
<event>
 5      1 +7.5707000e+03 8.71758000e+01 7.54677100e-03 1.30983900e-01
       -2 -1    0    0    0  501 -0.0000000000e+00 +0.0000000000e+00 +9.3007471253e+00 9.3007471253e+00 0.0000000000e+00 0.0000e+00 1.0000e+00
        1 -1    0    0  501    0 +0.0000000000e+00 -0.0000000000e+00 -2.0427445618e+02 2.0427445618e+02 0.0000000000e+00 0.0000e+00 -1.0000e+00
      -24  2    1    2    0    0 +0.0000000000e+00 +0.0000000000e+00 -1.9497370906e+02 2.1357520331e+02 8.7175800797e+01 0.0000e+00 0.0000e+00
       13  1    3    3    0    0 -2.9419962599e+01 -3.2094062871e+01 -9.2381812685e+01 1.0212718730e+02 0.0000000000e+00 0.0000e+00 -1.0000e+00
      -14  1    3    3    0    0 +2.9419962599e+01 +3.2094062871e+01 -1.0259189637e+02 1.1144801601e+02 0.0000000000e+00 0.0000e+00 1.0000e+00
<mgrwt>
<rscale>  0 0.87175801E+02</rscale>
<asrwt>0</asrwt>
<pdfrwt beam="1">  1        1 0.31426840E-01 0.87175801E+02</pdfrwt>
<pdfrwt beam="2">  1       -2 0.14308842E-02 0.87175801E+02</pdfrwt>
<totfact> 0.13314926E+05</totfact>
</mgrwt>
</event>
<event>
 5      1 +7.5707000e+03 7.91601900e+01 7.54677100e-03 1.33145200e-01
        3 -1    0    0  501    0 +0.0000000000e+00 +0.0000000000e+00 +1.3612441980e+02 1.3612441980e+02 0.0000000000e+00 0.0000e+00 -1.0000e+00
       -4 -1    0    0    0  501 -0.0000000000e+00 -0.0000000000e+00 -1.1508472201e+01 1.1508472201e+01 0.0000000000e+00 0.0000e+00 1.0000e+00
      -24  2    1    2    0    0 +0.0000000000e+00 +0.0000000000e+00 +1.2461594760e+02 1.4763289200e+02 7.9160194572e+01 0.0000e+00 0.0000e+00
       11  1    3    3    0    0 -3.9558097820e+01 -9.5922521859e-01 +6.0618243289e+01 7.2390155653e+01 0.0000000000e+00 0.0000e+00 -1.0000e+00
      -12  1    3    3    0    0 +3.9558097820e+01 +9.5922521859e-01 +6.3997704309e+01 7.5242736347e+01 0.0000000000e+00 0.0000e+00 1.0000e+00
<mgrwt>
<rscale>  0 0.79160195E+02</rscale>
<asrwt>0</asrwt>
<pdfrwt beam="1">  1        3 0.20942217E-01 0.79160195E+02</pdfrwt>
<pdfrwt beam="2">  1       -4 0.17705343E-02 0.79160195E+02</pdfrwt>
<totfact> 0.41328204E+04</totfact>
</mgrwt>
</event>
<event>
 5      1 +7.5707000e+03 8.53186200e+01 7.54677100e-03 1.31460100e-01
       -2 -1    0    0    0  501 -0.0000000000e+00 +0.0000000000e+00 +2.6519270505e+02 2.6519270505e+02 0.0000000000e+00 0.0000e+00 1.0000e+00
        1 -1    0    0  501    0 +0.0000000000e+00 -0.0000000000e+00 -6.8622422475e+00 6.8622422475e+00 0.0000000000e+00 0.0000e+00 -1.0000e+00
      -24  2    1    2    0    0 +0.0000000000e+00 +0.0000000000e+00 +2.5833046280e+02 2.7205494730e+02 8.5318616593e+01 0.0000e+00 0.0000e+00
       11  1    3    3    0    0 -4.9419596509e+00 -3.2724650551e+01 +4.3337174575e+01 5.4529225366e+01 0.0000000000e+00 0.0000e+00 -1.0000e+00
      -12  1    3    3    0    0 +4.9419596509e+00 +3.2724650551e+01 +2.1499328823e+02 2.1752572193e+02 0.0000000000e+00 0.0000e+00 1.0000e+00
<mgrwt>
<rscale>  0 0.85318617E+02</rscale>
<asrwt>0</asrwt>
<pdfrwt beam="1">  1        1 0.10557298E-02 0.85318617E+02</pdfrwt>
<pdfrwt beam="2">  1       -2 0.40798870E-01 0.85318617E+02</pdfrwt>
<totfact> 0.63429712E+04</totfact>
</mgrwt>
</event>
<event>
 5      1 +7.5707000e+03 8.10307400e+01 7.54677100e-03 1.32615200e-01
        1 -1    0    0  501    0 +0.0000000000e+00 +0.0000000000e+00 +1.2354214936e+02 1.2354214936e+02 0.0000000000e+00 0.0000e+00 -1.0000e+00
       -2 -1    0    0    0  501 -0.0000000000e+00 -0.0000000000e+00 -1.3286925828e+01 1.3286925828e+01 0.0000000000e+00 0.0000e+00 1.0000e+00
      -24  2    1    2    0    0 +0.0000000000e+00 +0.0000000000e+00 +1.1025522354e+02 1.3682907519e+02 8.1030744170e+01 0.0000e+00 0.0000e+00
       11  1    3    3    0    0 -2.0516928059e+01 -1.4308462351e+01 +1.0894674734e+02 1.1178134991e+02 0.0000000000e+00 0.0000e+00 -1.0000e+00
      -12  1    3    3    0    0 +2.0516928059e+01 +1.4308462351e+01 +1.3084761968e+00 2.5047725282e+01 0.0000000000e+00 0.0000e+00 1.0000e+00
<mgrwt>
<rscale>  0 0.81030744E+02</rscale>
<asrwt>0</asrwt>
<pdfrwt beam="1">  1        1 0.19006484E-01 0.81030744E+02</pdfrwt>
<pdfrwt beam="2">  1       -2 0.20441425E-02 0.81030744E+02</pdfrwt>
<totfact> 0.14728661E+05</totfact>
</mgrwt>
</event>
<event>
 5      1 +7.5707000e+03 8.00508100e+01 7.54677100e-03 1.32890700e-01
       -2 -1    0    0    0  501 -0.0000000000e+00 +0.0000000000e+00 +1.0213184853e+01 1.0213184853e+01 0.0000000000e+00 0.0000e+00 1.0000e+00
        1 -1    0    0  501    0 +0.0000000000e+00 -0.0000000000e+00 -1.5685931410e+02 1.5685931410e+02 0.0000000000e+00 0.0000e+00 -1.0000e+00
      -24  2    1    2    0    0 +0.0000000000e+00 +0.0000000000e+00 -1.4664612924e+02 1.6707249895e+02 8.0050813132e+01 0.0000e+00 0.0000e+00
       11  1    3    3    0    0 +3.9456469704e+01 -2.0068087827e+00 -5.9927829527e+01 7.1778722717e+01 0.0000000000e+00 0.0000e+00 -1.0000e+00
      -12  1    3    3    0    0 -3.9456469704e+01 +2.0068087827e+00 -8.6718299717e+01 9.5293776233e+01 0.0000000000e+00 0.0000e+00 1.0000e+00
<mgrwt>
<rscale>  0 0.80050813E+02</rscale>
<asrwt>0</asrwt>
<pdfrwt beam="1">  1        1 0.24132201E-01 0.80050813E+02</pdfrwt>
<pdfrwt beam="2">  1       -2 0.15712593E-02 0.80050813E+02</pdfrwt>
<totfact> 0.15892871E+05</totfact>
</mgrwt>
</event>
<event>
 5      1 +7.5707000e+03 8.12619900e+01 7.54677100e-03 1.32550800e-01
       -4 -1    0    0    0  501 -0.0000000000e+00 +0.0000000000e+00 +9.6157766902e+02 9.6157766902e+02 0.0000000000e+00 0.0000e+00 1.0000e+00
        3 -1    0    0  501    0 +0.0000000000e+00 -0.0000000000e+00 -1.7168427069e+00 1.7168427069e+00 0.0000000000e+00 0.0000e+00 -1.0000e+00
      -24  2    1    2    0    0 +0.0000000000e+00 +0.0000000000e+00 +9.5986082632e+02 9.6329451173e+02 8.1261986395e+01 0.0000e+00 0.0000e+00
       13  1    3    3    0    0 +2.8282669328e+01 +1.2699796984e+01 +1.6861793244e+02 1.7144445564e+02 0.0000000000e+00 0.0000e+00 -1.0000e+00
      -14  1    3    3    0    0 -2.8282669328e+01 -1.2699796984e+01 +7.9124289387e+02 7.9185005609e+02 0.0000000000e+00 0.0000e+00 1.0000e+00
<mgrwt>
<rscale>  0 0.81261986E+02</rscale>
<asrwt>0</asrwt>
<pdfrwt beam="1">  1        3 0.26413042E-03 0.81261986E+02</pdfrwt>
<pdfrwt beam="2">  1       -4 0.14793460E+00 0.81261986E+02</pdfrwt>
<totfact> 0.10883917E+04</totfact>
</mgrwt>
</event>
<event>
 5      1 +7.5707000e+03 8.01603900e+01 7.54677100e-03 1.32859700e-01
        1 -1    0    0  501    0 +0.0000000000e+00 +0.0000000000e+00 +1.7347647318e+01 1.7347647318e+01 0.0000000000e+00 0.0000e+00 -1.0000e+00
       -2 -1    0    0    0  501 -0.0000000000e+00 -0.0000000000e+00 -9.2601717658e+01 9.2601717658e+01 0.0000000000e+00 0.0000e+00 1.0000e+00
      -24  2    1    2    0    0 +0.0000000000e+00 +0.0000000000e+00 -7.5254070340e+01 1.0994936498e+02 8.0160387698e+01 0.0000e+00 0.0000e+00
       13  1    3    3    0    0 +1.9391424031e+01 +1.7376439466e+01 +4.1668845233e+00 2.6369127803e+01 0.0000000000e+00 0.0000e+00 -1.0000e+00
      -14  1    3    3    0    0 -1.9391424031e+01 -1.7376439466e+01 -7.9420954863e+01 8.3580237173e+01 0.0000000000e+00 0.0000e+00 1.0000e+00
<mgrwt>
<rscale>  0 0.80160388E+02</rscale>
<asrwt>0</asrwt>
<pdfrwt beam="1">  1        1 0.26688688E-02 0.80160388E+02</pdfrwt>
<pdfrwt beam="2">  1       -2 0.14246418E-01 0.80160388E+02</pdfrwt>
<totfact> 0.10757134E+05</totfact>
</mgrwt>
</event>
<event>
 5      1 +7.5707000e+03 7.48658200e+01 7.54677100e-03 1.34428700e-01
        1 -1    0    0  501    0 +0.0000000000e+00 +0.0000000000e+00 +1.6218391802e+02 1.6218391802e+02 0.0000000000e+00 0.0000e+00 -1.0000e+00
       -2 -1    0    0    0  501 -0.0000000000e+00 -0.0000000000e+00 -8.6397137945e+00 8.6397137945e+00 0.0000000000e+00 0.0000e+00 1.0000e+00
      -24  2    1    2    0    0 +0.0000000000e+00 +0.0000000000e+00 +1.5354420423e+02 1.7082363182e+02 7.4865816867e+01 0.0000e+00 0.0000e+00
       11  1    3    3    0    0 -3.0553609367e+01 +6.8311827572e+00 +1.2359122153e+02 1.2749501222e+02 0.0000000000e+00 0.0000e+00 -1.0000e+00
      -12  1    3    3    0    0 +3.0553609367e+01 -6.8311827572e+00 +2.9952982700e+01 4.3328619593e+01 0.0000000000e+00 0.0000e+00 1.0000e+00
<mgrwt>
<rscale>  0 0.74865817E+02</rscale>
<asrwt>0</asrwt>
<pdfrwt beam="1">  1        1 0.24951370E-01 0.74865817E+02</pdfrwt>
<pdfrwt beam="2">  1       -2 0.13291869E-02 0.74865817E+02</pdfrwt>
<totfact> 0.19105809E+05</totfact>
</mgrwt>
</event>
<event>
 5      1 +7.5707000e+03 8.22261900e+01 7.54677100e-03 1.32285000e-01
       -2 -1    0    0    0  501 -0.0000000000e+00 +0.0000000000e+00 +2.3050648957e+02 2.3050648957e+02 0.0000000000e+00 0.0000e+00 1.0000e+00
        1 -1    0    0  501    0 +0.0000000000e+00 -0.0000000000e+00 -7.3329234684e+00 7.3329234684e+00 0.0000000000e+00 0.0000e+00 -1.0000e+00
      -24  2    1    2    0    0 +0.0000000000e+00 +0.0000000000e+00 +2.2317356610e+02 2.3783941304e+02 8.2226186753e+01 0.0000e+00 0.0000e+00
       11  1    3    3    0    0 -3.2329341924e+01 -1.9310569216e+00 +3.8333284150e+01 5.0183224326e+01 0.0000000000e+00 0.0000e+00 -1.0000e+00
      -12  1    3    3    0    0 +3.2329341924e+01 +1.9310569216e+00 +1.8484028195e+02 1.8765618871e+02 0.0000000000e+00 0.0000e+00 1.0000e+00
<mgrwt>
<rscale>  0 0.82226187E+02</rscale>
<asrwt>0</asrwt>
<pdfrwt beam="1">  1        1 0.11281422E-02 0.82226187E+02</pdfrwt>
<pdfrwt beam="2">  1       -2 0.35462531E-01 0.82226187E+02</pdfrwt>
<totfact> 0.74587358E+04</totfact>
</mgrwt>
</event>
<event>
 5      1 +7.5707000e+03 8.02578500e+01 7.54677100e-03 1.32832100e-01
       -2 -1    0    0    0  501 -0.0000000000e+00 +0.0000000000e+00 +3.9124446765e+01 3.9124446765e+01 0.0000000000e+00 0.0000e+00 1.0000e+00
        1 -1    0    0  501    0 +0.0000000000e+00 -0.0000000000e+00 -4.1159192396e+01 4.1159192396e+01 0.0000000000e+00 0.0000e+00 -1.0000e+00
      -24  2    1    2    0    0 +0.0000000000e+00 +0.0000000000e+00 -2.0347456307e+00 8.0283639161e+01 8.0257850253e+01 0.0000e+00 0.0000e+00
       11  1    3    3    0    0 +1.4613359678e+01 +1.1248931085e+01 -3.6669278150e+01 4.1045397936e+01 0.0000000000e+00 0.0000e+00 -1.0000e+00
      -12  1    3    3    0    0 -1.4613359678e+01 -1.1248931085e+01 +3.4634532519e+01 3.9238241226e+01 0.0000000000e+00 0.0000e+00 1.0000e+00
<mgrwt>
<rscale>  0 0.80257850E+02</rscale>
<asrwt>0</asrwt>
<pdfrwt beam="1">  1        1 0.63321834E-02 0.80257850E+02</pdfrwt>
<pdfrwt beam="2">  1       -2 0.60191457E-02 0.80257850E+02</pdfrwt>
<totfact> 0.12641447E+05</totfact>
</mgrwt>
</event>
<event>
 5      1 +7.5707000e+03 8.23554700e+01 7.54677100e-03 1.32249700e-01
        3 -1    0    0  501    0 +0.0000000000e+00 +0.0000000000e+00 +2.5354256748e+01 2.5354256748e+01 0.0000000000e+00 0.0000e+00 -1.0000e+00
       -4 -1    0    0    0  501 -0.0000000000e+00 -0.0000000000e+00 -6.6876582913e+01 6.6876582913e+01 0.0000000000e+00 0.0000e+00 1.0000e+00
      -24  2    1    2    0    0 +0.0000000000e+00 +0.0000000000e+00 -4.1522326165e+01 9.2230839661e+01 8.2355474708e+01 0.0000e+00 0.0000e+00
       11  1    3    3    0    0 +3.8776820123e+01 +1.3513980075e+01 -1.7339175205e+01 4.4574840808e+01 0.0000000000e+00 0.0000e+00 -1.0000e+00
      -12  1    3    3    0    0 -3.8776820123e+01 -1.3513980075e+01 -2.4183150960e+01 4.7655998853e+01 0.0000000000e+00 0.0000e+00 1.0000e+00
<mgrwt>
<rscale>  0 0.82355475E+02</rscale>
<asrwt>0</asrwt>
<pdfrwt beam="1">  1        3 0.39006549E-02 0.82355475E+02</pdfrwt>
<pdfrwt beam="2">  1       -4 0.10288705E-01 0.82355475E+02</pdfrwt>
<totfact> 0.39997502E+04</totfact>
</mgrwt>
</event>
<event>
 5      1 +7.5707000e+03 7.80610500e+01 7.54677100e-03 1.33464600e-01
       -2 -1    0    0    0  501 -0.0000000000e+00 +0.0000000000e+00 +4.8185064205e+01 4.8185064205e+01 0.0000000000e+00 0.0000e+00 1.0000e+00
        1 -1    0    0  501    0 +0.0000000000e+00 -0.0000000000e+00 -3.1615231224e+01 3.1615231224e+01 0.0000000000e+00 0.0000e+00 -1.0000e+00
      -24  2    1    2    0    0 +0.0000000000e+00 +0.0000000000e+00 +1.6569832981e+01 7.9800295430e+01 7.8061051656e+01 0.0000e+00 0.0000e+00
       13  1    3    3    0    0 -2.8918392156e+01 -1.6311353926e+01 +2.9261562400e+01 4.4255764663e+01 0.0000000000e+00 0.0000e+00 -1.0000e+00
      -14  1    3    3    0    0 +2.8918392156e+01 +1.6311353926e+01 -1.2691729419e+01 3.5544530767e+01 0.0000000000e+00 0.0000e+00 1.0000e+00
<mgrwt>
<rscale>  0 0.78061052E+02</rscale>
<asrwt>0</asrwt>
<pdfrwt beam="1">  1        1 0.48638817E-02 0.78061052E+02</pdfrwt>
<pdfrwt beam="2">  1       -2 0.74130868E-02 0.78061052E+02</pdfrwt>
<totfact> 0.13092425E+05</totfact>
</mgrwt>
</event>
<event>
 5      1 +7.5707000e+03 7.78993300e+01 7.54677100e-03 1.33512100e-01
       -2 -1    0    0    0  501 -0.0000000000e+00 +0.0000000000e+00 +2.4726311147e+02 2.4726311147e+02 0.0000000000e+00 0.0000e+00 1.0000e+00
        1 -1    0    0  501    0 +0.0000000000e+00 -0.0000000000e+00 -6.1354737278e+00 6.1354737278e+00 0.0000000000e+00 0.0000e+00 -1.0000e+00
      -24  2    1    2    0    0 +0.0000000000e+00 +0.0000000000e+00 +2.4112763774e+02 2.5339858520e+02 7.7899327963e+01 0.0000e+00 0.0000e+00
       13  1    3    3    0    0 -7.5702007850e-01 -3.8941827437e+01 +1.2119223279e+02 1.2729727527e+02 0.0000000000e+00 0.0000e+00 -1.0000e+00
      -14  1    3    3    0    0 +7.5702007850e-01 +3.8941827437e+01 +1.1993540495e+02 1.2610130992e+02 0.0000000000e+00 0.0000e+00 1.0000e+00
<mgrwt>
<rscale>  0 0.77899328E+02</rscale>
<asrwt>0</asrwt>
<pdfrwt beam="1">  1        1 0.94391923E-03 0.77899328E+02</pdfrwt>
<pdfrwt beam="2">  1       -2 0.38040471E-01 0.77899328E+02</pdfrwt>
<totfact> 0.83028128E+04</totfact>
</mgrwt>
</event>
<event>
 5      1 +7.5707000e+03 8.02230100e+01 7.54677100e-03 1.32842000e-01
       -4 -1    0    0    0  501 -0.0000000000e+00 +0.0000000000e+00 +1.5296724355e+01 1.5296724355e+01 0.0000000000e+00 0.0000e+00 1.0000e+00
        3 -1    0    0  501    0 +0.0000000000e+00 -0.0000000000e+00 -1.0518152733e+02 1.0518152733e+02 0.0000000000e+00 0.0000e+00 -1.0000e+00
      -24  2    1    2    0    0 +0.0000000000e+00 +0.0000000000e+00 -8.9884802975e+01 1.2047825169e+02 8.0223009936e+01 0.0000e+00 0.0000e+00
       13  1    3    3    0    0 -2.4165526700e+01 +5.0695385188e+00 -9.2415648862e+01 9.5657331429e+01 0.0000000000e+00 0.0000e+00 -1.0000e+00
      -14  1    3    3    0    0 +2.4165526700e+01 -5.0695385188e+00 +2.5308458872e+00 2.4820920256e+01 0.0000000000e+00 0.0000e+00 1.0000e+00
<mgrwt>
<rscale>  0 0.80223010E+02</rscale>
<asrwt>0</asrwt>
<pdfrwt beam="1">  1        3 0.16181773E-01 0.80223010E+02</pdfrwt>
<pdfrwt beam="2">  1       -4 0.23533423E-02 0.80223010E+02</pdfrwt>
<totfact> 0.41952804E+04</totfact>
</mgrwt>
</event>
<event>
 5      1 +7.5707000e+03 8.21657400e+01 7.54677100e-03 1.32301500e-01
        1 -1    0    0  501    0 +0.0000000000e+00 +0.0000000000e+00 +1.3423636131e+02 1.3423636131e+02 0.0000000000e+00 0.0000e+00 -1.0000e+00
       -2 -1    0    0    0  501 -0.0000000000e+00 -0.0000000000e+00 -1.2573359726e+01 1.2573359726e+01 0.0000000000e+00 0.0000e+00 1.0000e+00
      -24  2    1    2    0    0 +0.0000000000e+00 +0.0000000000e+00 +1.2166300158e+02 1.4680972103e+02 8.2165736387e+01 0.0000e+00 0.0000e+00
       11  1    3    3    0    0 +3.4003147005e+01 +2.3016240438e+01 +6.3255647889e+01 7.5413780704e+01 0.0000000000e+00 0.0000e+00 -1.0000e+00
      -12  1    3    3    0    0 -3.4003147005e+01 -2.3016240438e+01 +5.8407353693e+01 7.1395940330e+01 0.0000000000e+00 0.0000e+00 1.0000e+00
<mgrwt>
<rscale>  0 0.82165736E+02</rscale>
<asrwt>0</asrwt>
<pdfrwt beam="1">  1        1 0.20651747E-01 0.82165736E+02</pdfrwt>
<pdfrwt beam="2">  1       -2 0.19343631E-02 0.82165736E+02</pdfrwt>
<totfact> 0.14401558E+05</totfact>
</mgrwt>
</event>
<event>
 4      1 +7.5707000e+03 1.18710800e+02 7.54677100e-03 1.24523900e-01
       -4 -1    0    0    0  501 -0.0000000000e+00 +0.0000000000e+00 +7.4876325275e+01 7.4876325275e+01 0.0000000000e+00 0.0000e+00 1.0000e+00
        3 -1    0    0  501    0 +0.0000000000e+00 -0.0000000000e+00 -4.7051737051e+01 4.7051737051e+01 0.0000000000e+00 0.0000e+00 -1.0000e+00
       13  1    1    2    0    0 +1.6203026483e+01 +9.8702593874e+00 -4.3853416453e+01 4.7781609665e+01 0.0000000000e+00 0.0000e+00 -1.0000e+00
      -14  1    1    2    0    0 -1.6203026483e+01 -9.8702593874e+00 +7.1678004677e+01 7.4146452660e+01 0.0000000000e+00 0.0000e+00 1.0000e+00
<mgrwt>
<rscale>  0 0.11871076E+03</rscale>
<asrwt>0</asrwt>
<pdfrwt beam="1">  1        3 0.72387288E-02 0.11871076E+03</pdfrwt>
<pdfrwt beam="2">  1       -4 0.11519435E-01 0.11871076E+03</pdfrwt>
<totfact> 0.13840176E+04</totfact>
</mgrwt>
</event>
<event>
 5      1 +7.5707000e+03 6.81736700e+01 7.54677100e-03 1.36641600e-01
       -2 -1    0    0    0  501 -0.0000000000e+00 +0.0000000000e+00 +2.7741715253e+02 2.7741715253e+02 0.0000000000e+00 0.0000e+00 1.0000e+00
        1 -1    0    0  501    0 +0.0000000000e+00 -0.0000000000e+00 -4.1883216698e+00 4.1883216698e+00 0.0000000000e+00 0.0000e+00 -1.0000e+00
      -24  2    1    2    0    0 +0.0000000000e+00 +0.0000000000e+00 +2.7322883086e+02 2.8160547420e+02 6.8173668568e+01 0.0000e+00 0.0000e+00
       13  1    3    3    0    0 +1.5809701335e+01 +2.1689103207e+01 +4.9815640791e+01 5.6585880939e+01 0.0000000000e+00 0.0000e+00 -1.0000e+00
      -14  1    3    3    0    0 -1.5809701335e+01 -2.1689103207e+01 +2.2341319007e+02 2.2501959326e+02 0.0000000000e+00 0.0000e+00 1.0000e+00
<mgrwt>
<rscale>  0 0.68173669E+02</rscale>
<asrwt>0</asrwt>
<pdfrwt beam="1">  1        1 0.64435740E-03 0.68173669E+02</pdfrwt>
<pdfrwt beam="2">  1       -2 0.42679548E-01 0.68173669E+02</pdfrwt>
<totfact> 0.11040287E+05</totfact>
</mgrwt>
</event>
<event>
 5      1 +7.5707000e+03 7.86658800e+01 7.54677100e-03 1.33288100e-01
        1 -1    0    0  501    0 +0.0000000000e+00 +0.0000000000e+00 +1.6087804134e+02 1.6087804134e+02 0.0000000000e+00 0.0000e+00 -1.0000e+00
       -2 -1    0    0    0  501 -0.0000000000e+00 -0.0000000000e+00 -9.6164777240e+00 9.6164777240e+00 0.0000000000e+00 0.0000e+00 1.0000e+00
      -24  2    1    2    0    0 +0.0000000000e+00 +0.0000000000e+00 +1.5126156361e+02 1.7049451906e+02 7.8665878265e+01 0.0000e+00 0.0000e+00
       11  1    3    3    0    0 -2.8356402282e+01 -2.4000568771e+01 +1.0363604590e+02 1.1009333704e+02 0.0000000000e+00 0.0000e+00 -1.0000e+00
      -12  1    3    3    0    0 +2.8356402282e+01 +2.4000568771e+01 +4.7625517717e+01 6.0401182021e+01 0.0000000000e+00 0.0000e+00 1.0000e+00
<mgrwt>
<rscale>  0 0.78665878E+02</rscale>
<asrwt>0</asrwt>
<pdfrwt beam="1">  1        1 0.24750466E-01 0.78665878E+02</pdfrwt>
<pdfrwt beam="2">  1       -2 0.14794582E-02 0.78665878E+02</pdfrwt>
<totfact> 0.16728349E+05</totfact>
</mgrwt>
</event>
<event>
 5      1 +7.5707000e+03 8.25856400e+01 7.54677100e-03 1.32187000e-01
       -2 -1    0    0    0  501 -0.0000000000e+00 +0.0000000000e+00 +3.9812653659e+01 3.9812653659e+01 0.0000000000e+00 0.0000e+00 1.0000e+00
        1 -1    0    0  501    0 +0.0000000000e+00 -0.0000000000e+00 -4.2828014700e+01 4.2828014700e+01 0.0000000000e+00 0.0000e+00 -1.0000e+00
      -24  2    1    2    0    0 +0.0000000000e+00 +0.0000000000e+00 -3.0153610414e+00 8.2640668359e+01 8.2585638367e+01 0.0000e+00 0.0000e+00
       11  1    3    3    0    0 -2.5516556101e+01 +1.4695183495e+01 -3.0476130430e+01 4.2377323880e+01 0.0000000000e+00 0.0000e+00 -1.0000e+00
      -12  1    3    3    0    0 +2.5516556101e+01 -1.4695183495e+01 +2.7460769389e+01 4.0263344479e+01 0.0000000000e+00 0.0000e+00 1.0000e+00
<mgrwt>
<rscale>  0 0.82585638E+02</rscale>
<asrwt>0</asrwt>
<pdfrwt beam="1">  1        1 0.65889253E-02 0.82585638E+02</pdfrwt>
<pdfrwt beam="2">  1       -2 0.61250237E-02 0.82585638E+02</pdfrwt>
<totfact> 0.11738972E+05</totfact>
</mgrwt>
</event>
<event>
 5      1 +7.5707000e+03 1.00677700e+02 7.54677100e-03 1.27887700e-01
        3 -1    0    0  501    0 +0.0000000000e+00 +0.0000000000e+00 +1.0256370088e+01 1.0256370088e+01 0.0000000000e+00 0.0000e+00 -1.0000e+00
       -4 -1    0    0    0  501 -0.0000000000e+00 -0.0000000000e+00 -2.4706610393e+02 2.4706610393e+02 0.0000000000e+00 0.0000e+00 1.0000e+00
      -24  2    1    2    0    0 +0.0000000000e+00 +0.0000000000e+00 -2.3680973384e+02 2.5732247402e+02 1.0067773136e+02 0.0000e+00 0.0000e+00
       13  1    3    3    0    0 -4.4585879142e+01 +2.0062195698e+01 -8.7775695242e+01 1.0047370298e+02 0.0000000000e+00 0.0000e+00 -1.0000e+00
      -14  1    3    3    0    0 +4.4585879142e+01 -2.0062195698e+01 -1.4903403860e+02 1.5684877104e+02 0.0000000000e+00 0.0000e+00 1.0000e+00
<mgrwt>
<rscale>  0 0.10067773E+03</rscale>
<asrwt>0</asrwt>
<pdfrwt beam="1">  1        3 0.15779032E-02 0.10067773E+03</pdfrwt>
<pdfrwt beam="2">  1       -4 0.38010168E-01 0.10067773E+03</pdfrwt>
<totfact> 0.16239749E+04</totfact>
</mgrwt>
</event>
<event>
 5      1 +7.5707000e+03 8.12363100e+01 7.54677100e-03 1.32557900e-01
        1 -1    0    0  501    0 +0.0000000000e+00 +0.0000000000e+00 +6.2224857759e+00 6.2224857759e+00 0.0000000000e+00 0.0000e+00 -1.0000e+00
       -2 -1    0    0    0  501 -0.0000000000e+00 -0.0000000000e+00 -2.6514076175e+02 2.6514076175e+02 0.0000000000e+00 0.0000e+00 1.0000e+00
      -24  2    1    2    0    0 +0.0000000000e+00 +0.0000000000e+00 -2.5891827598e+02 2.7136324753e+02 8.1236312536e+01 0.0000e+00 0.0000e+00
       13  1    3    3    0    0 -8.5065262051e+00 -3.4876115397e+01 -6.5979749615e+01 7.5113459330e+01 0.0000000000e+00 0.0000e+00 -1.0000e+00
      -14  1    3    3    0    0 +8.5065262051e+00 +3.4876115397e+01 -1.9293852636e+02 1.9624978820e+02 0.0000000000e+00 0.0000e+00 1.0000e+00
<mgrwt>
<rscale>  0 0.81236313E+02</rscale>
<asrwt>0</asrwt>
<pdfrwt beam="1">  1        1 0.95730541E-03 0.81236313E+02</pdfrwt>
<pdfrwt beam="2">  1       -2 0.40790890E-01 0.81236313E+02</pdfrwt>
<totfact> 0.72025246E+04</totfact>
</mgrwt>
</event>
<event>
 5      1 +7.5707000e+03 7.90483500e+01 7.54677100e-03 1.33177400e-01
        1 -1    0    0  501    0 +0.0000000000e+00 +0.0000000000e+00 +1.6802211876e+02 1.6802211876e+02 0.0000000000e+00 0.0000e+00 -1.0000e+00
       -2 -1    0    0    0  501 -0.0000000000e+00 -0.0000000000e+00 -9.2973488235e+00 9.2973488235e+00 0.0000000000e+00 0.0000e+00 1.0000e+00
      -24  2    1    2    0    0 +0.0000000000e+00 +0.0000000000e+00 +1.5872476993e+02 1.7731946758e+02 7.9048345919e+01 0.0000e+00 0.0000e+00
       11  1    3    3    0    0 +2.1131532608e+01 +3.1847087376e+01 +1.0194858706e+02 1.0887742212e+02 0.0000000000e+00 0.0000e+00 -1.0000e+00
      -12  1    3    3    0    0 -2.1131532608e+01 -3.1847087376e+01 +5.6776182875e+01 6.8442045459e+01 0.0000000000e+00 0.0000e+00 1.0000e+00
<mgrwt>
<rscale>  0 0.79048346E+02</rscale>
<asrwt>0</asrwt>
<pdfrwt beam="1">  1        1 0.25849554E-01 0.79048346E+02</pdfrwt>
<pdfrwt beam="2">  1       -2 0.14303615E-02 0.79048346E+02</pdfrwt>
<totfact> 0.16648417E+05</totfact>
</mgrwt>
</event>
<event>
 5      1 +7.5707000e+03 8.05033700e+01 7.54677100e-03 1.32762900e-01
        3 -1    0    0  501    0 +0.0000000000e+00 +0.0000000000e+00 +6.1060132199e+01 6.1060132199e+01 0.0000000000e+00 0.0000e+00 -1.0000e+00
       -4 -1    0    0    0  501 -0.0000000000e+00 -0.0000000000e+00 -2.6534470148e+01 2.6534470148e+01 0.0000000000e+00 0.0000e+00 1.0000e+00
      -24  2    1    2    0    0 +0.0000000000e+00 +0.0000000000e+00 +3.4525662051e+01 8.7594602347e+01 8.0503372726e+01 0.0000e+00 0.0000e+00
       11  1    3    3    0    0 -1.7549326188e+01 +2.0745345000e+01 +4.9574593349e+01 5.6533074342e+01 0.0000000000e+00 0.0000e+00 -1.0000e+00
      -12  1    3    3    0    0 +1.7549326188e+01 -2.0745345000e+01 -1.5048931298e+01 3.1061528005e+01 0.0000000000e+00 0.0000e+00 1.0000e+00
<mgrwt>
<rscale>  0 0.80503373E+02</rscale>
<asrwt>0</asrwt>
<pdfrwt beam="1">  1        3 0.93938664E-02 0.80503373E+02</pdfrwt>
<pdfrwt beam="2">  1       -4 0.40822262E-02 0.80503373E+02</pdfrwt>
<totfact> 0.44097170E+04</totfact>
</mgrwt>
</event>
<event>
 5      1 +7.5707000e+03 7.81563800e+01 7.54677100e-03 1.33436600e-01
       -4 -1    0    0    0  501 -0.0000000000e+00 +0.0000000000e+00 +2.7914369039e+01 2.7914369039e+01 0.0000000000e+00 0.0000e+00 1.0000e+00
        3 -1    0    0  501    0 +0.0000000000e+00 -0.0000000000e+00 -5.4706764526e+01 5.4706764526e+01 0.0000000000e+00 0.0000e+00 -1.0000e+00
      -24  2    1    2    0    0 +0.0000000000e+00 +0.0000000000e+00 -2.6792395488e+01 8.2621133565e+01 7.8156376935e+01 0.0000e+00 0.0000e+00
       13  1    3    3    0    0 +2.8275573691e+01 -7.6007484529e+00 -4.0755658071e+01 5.0182697311e+01 0.0000000000e+00 0.0000e+00 -1.0000e+00
      -14  1    3    3    0    0 -2.8275573691e+01 +7.6007484529e+00 +1.3963262584e+01 3.2438436254e+01 0.0000000000e+00 0.0000e+00 1.0000e+00
<mgrwt>
<rscale>  0 0.78156377E+02</rscale>
<asrwt>0</asrwt>
<pdfrwt beam="1">  1        3 0.84164251E-02 0.78156377E+02</pdfrwt>
<pdfrwt beam="2">  1       -4 0.42945184E-02 0.78156377E+02</pdfrwt>
<totfact> 0.48178557E+04</totfact>
</mgrwt>
</event>
<event>
 5      1 +7.5707000e+03 5.47104300e+01 7.54677100e-03 1.42147300e-01
        1 -1    0    0  501    0 +0.0000000000e+00 +0.0000000000e+00 +2.0337635190e+01 2.0337635190e+01 0.0000000000e+00 0.0000e+00 -1.0000e+00
       -2 -1    0    0    0  501 -0.0000000000e+00 -0.0000000000e+00 -3.6794242655e+01 3.6794242655e+01 0.0000000000e+00 0.0000e+00 1.0000e+00
      -24  2    1    2    0    0 +0.0000000000e+00 +0.0000000000e+00 -1.6456607465e+01 5.7131877844e+01 5.4710433527e+01 0.0000e+00 0.0000e+00
       11  1    3    3    0    0 +4.4397444519e+00 +1.6545901843e+01 +1.4042338637e+01 2.2150970024e+01 0.0000000000e+00 0.0000e+00 -1.0000e+00
      -12  1    3    3    0    0 -4.4397444519e+00 -1.6545901843e+01 -3.0498946102e+01 3.4980907820e+01 0.0000000000e+00 0.0000e+00 1.0000e+00
<mgrwt>
<rscale>  0 0.54710434E+02</rscale>
<asrwt>0</asrwt>
<pdfrwt beam="1">  1        1 0.31288670E-02 0.54710434E+02</pdfrwt>
<pdfrwt beam="2">  1       -2 0.56606526E-02 0.54710434E+02</pdfrwt>
<totfact> 0.32947937E+05</totfact>
</mgrwt>
</event>
<event>
 5      1 +7.5707000e+03 7.88052500e+01 7.54677100e-03 1.33247700e-01
        3 -1    0    0  501    0 +0.0000000000e+00 +0.0000000000e+00 +1.2484650105e+01 1.2484650105e+01 0.0000000000e+00 0.0000e+00 -1.0000e+00
       -4 -1    0    0    0  501 -0.0000000000e+00 -0.0000000000e+00 -1.2435805139e+02 1.2435805139e+02 0.0000000000e+00 0.0000e+00 1.0000e+00
      -24  2    1    2    0    0 +0.0000000000e+00 +0.0000000000e+00 -1.1187340128e+02 1.3684270149e+02 7.8805247525e+01 0.0000e+00 0.0000e+00
       11  1    3    3    0    0 +1.8172426718e+01 -2.7768690129e+01 -1.9050387281e+01 3.8265578525e+01 0.0000000000e+00 0.0000e+00 -1.0000e+00
      -12  1    3    3    0    0 -1.8172426718e+01 +2.7768690129e+01 -9.2823014001e+01 9.8577122968e+01 0.0000000000e+00 0.0000e+00 1.0000e+00
<mgrwt>
<rscale>  0 0.78805248E+02</rscale>
<asrwt>0</asrwt>
<pdfrwt beam="1">  1        3 0.19207155E-02 0.78805248E+02</pdfrwt>
<pdfrwt beam="2">  1       -4 0.19132007E-01 0.78805248E+02</pdfrwt>
<totfact> 0.39996949E+04</totfact>
</mgrwt>
</event>
<event>
 5      1 +7.5707000e+03 8.11854500e+01 7.54677100e-03 1.32572100e-01
        1 -1    0    0  501    0 +0.0000000000e+00 +0.0000000000e+00 +5.4958906772e+01 5.4958906772e+01 0.0000000000e+00 0.0000e+00 -1.0000e+00
       -2 -1    0    0    0  501 -0.0000000000e+00 -0.0000000000e+00 -2.9981839944e+01 2.9981839944e+01 0.0000000000e+00 0.0000e+00 1.0000e+00
      -24  2    1    2    0    0 +0.0000000000e+00 +0.0000000000e+00 +2.4977066828e+01 8.4940746716e+01 8.1185445650e+01 0.0000e+00 0.0000e+00
       13  1    3    3    0    0 -2.4366033431e+01 -3.2239624878e+01 +1.6496137025e+01 4.3648820536e+01 0.0000000000e+00 0.0000e+00 -1.0000e+00
      -14  1    3    3    0    0 +2.4366033431e+01 +3.2239624878e+01 +8.4809298023e+00 4.1291926181e+01 0.0000000000e+00 0.0000e+00 1.0000e+00
<mgrwt>
<rscale>  0 0.81185446E+02</rscale>
<asrwt>0</asrwt>
<pdfrwt beam="1">  1        1 0.84552164E-02 0.81185446E+02</pdfrwt>
<pdfrwt beam="2">  1       -2 0.46125908E-02 0.81185446E+02</pdfrwt>
<totfact> 0.12820252E+05</totfact>
</mgrwt>
</event>
<event>
 5      1 +7.5707000e+03 8.40989700e+01 7.54677100e-03 1.31780600e-01
        1 -1    0    0  501    0 +0.0000000000e+00 +0.0000000000e+00 +1.5718729033e+00 1.5718729033e+00 0.0000000000e+00 0.0000e+00 -1.0000e+00
       -2 -1    0    0    0  501 -0.0000000000e+00 -0.0000000000e+00 -1.1248741586e+03 1.1248741586e+03 0.0000000000e+00 0.0000e+00 1.0000e+00
      -24  2    1    2    0    0 +0.0000000000e+00 +0.0000000000e+00 -1.1233022857e+03 1.1264460315e+03 8.4098970493e+01 0.0000e+00 0.0000e+00
       11  1    3    3    0    0 +4.7800956179e+00 +2.4156923686e+01 -1.0511349301e+02 1.0795949559e+02 0.0000000000e+00 0.0000e+00 -1.0000e+00
      -12  1    3    3    0    0 -4.7800956179e+00 -2.4156923686e+01 -1.0181887927e+03 1.0184865359e+03 0.0000000000e+00 0.0000e+00 1.0000e+00
<mgrwt>
<rscale>  0 0.84098970E+02</rscale>
<asrwt>0</asrwt>
<pdfrwt beam="1">  1        1 0.24182695E-03 0.84098970E+02</pdfrwt>
<pdfrwt beam="2">  1       -2 0.17305731E+00 0.84098970E+02</pdfrwt>
<totfact> 0.19855554E+04</totfact>
</mgrwt>
</event>
<event>
 5      1 +7.5707000e+03 8.08011100e+01 7.54677100e-03 1.32679300e-01
        1 -1    0    0  501    0 +0.0000000000e+00 +0.0000000000e+00 +6.8571561882e+01 6.8571561882e+01 0.0000000000e+00 0.0000e+00 -1.0000e+00
       -2 -1    0    0    0  501 -0.0000000000e+00 -0.0000000000e+00 -2.3802939480e+01 2.3802939480e+01 0.0000000000e+00 0.0000e+00 1.0000e+00
      -24  2    1    2    0    0 +0.0000000000e+00 +0.0000000000e+00 +4.4768622402e+01 9.2374501362e+01 8.0801107357e+01 0.0000e+00 0.0000e+00
       13  1    3    3    0    0 -1.1522288784e+01 +2.9361563779e+01 +5.1245913680e+01 6.0174813962e+01 0.0000000000e+00 0.0000e+00 -1.0000e+00
      -14  1    3    3    0    0 +1.1522288784e+01 -2.9361563779e+01 -6.4772912784e+00 3.2199687400e+01 0.0000000000e+00 0.0000e+00 1.0000e+00
<mgrwt>
<rscale>  0 0.80801107E+02</rscale>
<asrwt>0</asrwt>
<pdfrwt beam="1">  1        1 0.10549471E-01 0.80801107E+02</pdfrwt>
<pdfrwt beam="2">  1       -2 0.36619907E-02 0.80801107E+02</pdfrwt>
<totfact> 0.13452816E+05</totfact>
</mgrwt>
</event>
<event>
 5      1 +7.5707000e+03 7.61352400e+01 7.54677100e-03 1.34039100e-01
        1 -1    0    0  501    0 +0.0000000000e+00 +0.0000000000e+00 +3.7742303532e+00 3.7742303532e+00 0.0000000000e+00 0.0000e+00 -1.0000e+00
       -2 -1    0    0    0  501 -0.0000000000e+00 -0.0000000000e+00 -3.8395741523e+02 3.8395741523e+02 0.0000000000e+00 0.0000e+00 1.0000e+00
      -24  2    1    2    0    0 +0.0000000000e+00 +0.0000000000e+00 -3.8018318488e+02 3.8773164558e+02 7.6135241010e+01 0.0000e+00 0.0000e+00
       13  1    3    3    0    0 -1.1326822747e+01 -3.6340524261e+01 -1.9244258523e+02 1.9617104585e+02 0.0000000000e+00 0.0000e+00 -1.0000e+00
      -14  1    3    3    0    0 +1.1326822747e+01 +3.6340524261e+01 -1.8774059964e+02 1.9156059974e+02 0.0000000000e+00 0.0000e+00 1.0000e+00
<mgrwt>
<rscale>  0 0.76135241E+02</rscale>
<asrwt>0</asrwt>
<pdfrwt beam="1">  1        1 0.58065106E-03 0.76135241E+02</pdfrwt>
<pdfrwt beam="2">  1       -2 0.59070347E-01 0.76135241E+02</pdfrwt>
<totfact> 0.68964064E+04</totfact>
</mgrwt>
</event>
<event>
 5      1 +7.5707000e+03 8.08412300e+01 7.54677100e-03 1.32668100e-01
        1 -1    0    0  501    0 +0.0000000000e+00 +0.0000000000e+00 +1.8263930324e+01 1.8263930324e+01 0.0000000000e+00 0.0000e+00 -1.0000e+00
       -2 -1    0    0    0  501 -0.0000000000e+00 -0.0000000000e+00 -8.9456432328e+01 8.9456432328e+01 0.0000000000e+00 0.0000e+00 1.0000e+00
      -24  2    1    2    0    0 +0.0000000000e+00 +0.0000000000e+00 -7.1192502003e+01 1.0772036265e+02 8.0841228271e+01 0.0000e+00 0.0000e+00
       11  1    3    3    0    0 +2.8973897219e+01 -2.7113437614e+00 +1.7845792061e+00 2.9155150968e+01 0.0000000000e+00 0.0000e+00 -1.0000e+00
      -12  1    3    3    0    0 -2.8973897219e+01 +2.7113437614e+00 -7.2977081210e+01 7.8565211684e+01 0.0000000000e+00 0.0000e+00 1.0000e+00
<mgrwt>
<rscale>  0 0.80841228E+02</rscale>
<asrwt>0</asrwt>
<pdfrwt beam="1">  1        1 0.28098354E-02 0.80841228E+02</pdfrwt>
<pdfrwt beam="2">  1       -2 0.13762528E-01 0.80841228E+02</pdfrwt>
<totfact> 0.10612743E+05</totfact>
</mgrwt>
</event>
<event>
 5      1 +7.5707000e+03 8.04232000e+01 7.54677100e-03 1.32785500e-01
       -2 -1    0    0    0  501 -0.0000000000e+00 +0.0000000000e+00 +2.8052647025e+01 2.8052647025e+01 0.0000000000e+00 0.0000e+00 1.0000e+00
        1 -1    0    0  501    0 +0.0000000000e+00 -0.0000000000e+00 -5.7640648369e+01 5.7640648369e+01 0.0000000000e+00 0.0000e+00 -1.0000e+00
      -24  2    1    2    0    0 +0.0000000000e+00 +0.0000000000e+00 -2.9588001344e+01 8.5693295395e+01 8.0423199713e+01 0.0000e+00 0.0000e+00
       13  1    3    3    0    0 -1.9812602955e+01 -2.5482596832e+01 -4.0346074235e+01 5.1669214077e+01 0.0000000000e+00 0.0000e+00 -1.0000e+00
      -14  1    3    3    0    0 +1.9812602955e+01 +2.5482596832e+01 +1.0758072891e+01 3.4024081317e+01 0.0000000000e+00 0.0000e+00 1.0000e+00
<mgrwt>
<rscale>  0 0.80423200E+02</rscale>
<asrwt>0</asrwt>
<pdfrwt beam="1">  1        1 0.88677920E-02 0.80423200E+02</pdfrwt>
<pdfrwt beam="2">  1       -2 0.43157919E-02 0.80423200E+02</pdfrwt>
<totfact> 0.13259013E+05</totfact>
</mgrwt>
</event>
<event>
 5      1 +7.5707000e+03 7.92509000e+01 7.54677100e-03 1.33119100e-01
        1 -1    0    0  501    0 +0.0000000000e+00 +0.0000000000e+00 +1.0257782538e+01 1.0257782538e+01 0.0000000000e+00 0.0000e+00 -1.0000e+00
       -2 -1    0    0    0  501 -0.0000000000e+00 -0.0000000000e+00 -1.5307169412e+02 1.5307169412e+02 0.0000000000e+00 0.0000e+00 1.0000e+00
      -24  2    1    2    0    0 +0.0000000000e+00 +0.0000000000e+00 -1.4281391158e+02 1.6332947665e+02 7.9250896548e+01 0.0000e+00 0.0000e+00
       11  1    3    3    0    0 -8.6135432651e+00 +9.4867309732e+00 +5.8701278378e+00 1.4094310660e+01 0.0000000000e+00 0.0000e+00 -1.0000e+00
      -12  1    3    3    0    0 +8.6135432651e+00 -9.4867309732e+00 -1.4868403942e+02 1.4923516599e+02 0.0000000000e+00 0.0000e+00 1.0000e+00
<mgrwt>
<rscale>  0 0.79250897E+02</rscale>
<asrwt>0</asrwt>
<pdfrwt beam="1">  1        1 0.15781204E-02 0.79250897E+02</pdfrwt>
<pdfrwt beam="2">  1       -2 0.23549492E-01 0.79250897E+02</pdfrwt>
<totfact> 0.96178913E+04</totfact>
</mgrwt>
</event>
<event>
 5      1 +7.5707000e+03 7.95709200e+01 7.54677100e-03 1.33027400e-01
       -2 -1    0    0    0  501 -0.0000000000e+00 +0.0000000000e+00 +1.7719630485e+01 1.7719630485e+01 0.0000000000e+00 0.0000e+00 1.0000e+00
        1 -1    0    0  501    0 +0.0000000000e+00 -0.0000000000e+00 -8.9329343731e+01 8.9329343731e+01 0.0000000000e+00 0.0000e+00 -1.0000e+00
      -24  2    1    2    0    0 +0.0000000000e+00 +0.0000000000e+00 -7.1609713246e+01 1.0704897422e+02 7.9570923392e+01 0.0000e+00 0.0000e+00
       13  1    3    3    0    0 +6.6051947673e+00 +3.3344467881e+01 -6.3617725660e+01 7.2129724485e+01 0.0000000000e+00 0.0000e+00 -1.0000e+00
      -14  1    3    3    0    0 -6.6051947673e+00 -3.3344467881e+01 -7.9919875865e+00 3.4919249731e+01 0.0000000000e+00 0.0000e+00 1.0000e+00
<mgrwt>
<rscale>  0 0.79570923E+02</rscale>
<asrwt>0</asrwt>
<pdfrwt beam="1">  1        1 0.13742976E-01 0.79570923E+02</pdfrwt>
<pdfrwt beam="2">  1       -2 0.27260970E-02 0.79570923E+02</pdfrwt>
<totfact> 0.14637891E+05</totfact>
</mgrwt>
</event>
<event>
 5      1 +7.5707000e+03 5.99594700e+01 7.54677100e-03 1.39800200e-01
        1 -1    0    0  501    0 +0.0000000000e+00 +0.0000000000e+00 +2.6417154422e+00 2.6417154422e+00 0.0000000000e+00 0.0000e+00 -1.0000e+00
       -2 -1    0    0    0  501 -0.0000000000e+00 -0.0000000000e+00 -3.4022756233e+02 3.4022756233e+02 0.0000000000e+00 0.0000e+00 1.0000e+00
      -24  2    1    2    0    0 +0.0000000000e+00 +0.0000000000e+00 -3.3758584689e+02 3.4286927777e+02 5.9959466484e+01 0.0000e+00 0.0000e+00
       11  1    3    3    0    0 +1.9517925155e+01 -9.6107371127e-01 -3.8782299436e+01 4.3427408564e+01 0.0000000000e+00 0.0000e+00 -1.0000e+00
      -12  1    3    3    0    0 -1.9517925155e+01 +9.6107371127e-01 -2.9880354745e+02 2.9944186921e+02 0.0000000000e+00 0.0000e+00 1.0000e+00
<mgrwt>
<rscale>  0 0.59959466E+02</rscale>
<asrwt>0</asrwt>
<pdfrwt beam="1">  1        1 0.40641748E-03 0.59959466E+02</pdfrwt>
<pdfrwt beam="2">  1       -2 0.52342738E-01 0.59959466E+02</pdfrwt>
<totfact> 0.13650753E+05</totfact>
</mgrwt>
</event>
<event>
 5      1 +7.5707000e+03 8.79128600e+01 7.54677100e-03 1.30798600e-01
       -2 -1    0    0    0  501 -0.0000000000e+00 +0.0000000000e+00 +5.0681349144e+00 5.0681349144e+00 0.0000000000e+00 0.0000e+00 1.0000e+00
        1 -1    0    0  501    0 +0.0000000000e+00 -0.0000000000e+00 -3.8123841621e+02 3.8123841621e+02 0.0000000000e+00 0.0000e+00 -1.0000e+00
      -24  2    1    2    0    0 +0.0000000000e+00 +0.0000000000e+00 -3.7617028130e+02 3.8630655113e+02 8.7912859763e+01 0.0000e+00 0.0000e+00
       13  1    3    3    0    0 -3.9806771440e+01 +1.7808074824e+01 -2.1233743263e+02 2.1676921340e+02 0.0000000000e+00 0.0000e+00 -1.0000e+00
      -14  1    3    3    0    0 +3.9806771440e+01 -1.7808074824e+01 -1.6383284867e+02 1.6953733773e+02 0.0000000000e+00 0.0000e+00 1.0000e+00
<mgrwt>
<rscale>  0 0.87912860E+02</rscale>
<asrwt>0</asrwt>
<pdfrwt beam="1">  1        1 0.58652072E-01 0.87912860E+02</pdfrwt>
<pdfrwt beam="2">  1       -2 0.77971296E-03 0.87912860E+02</pdfrwt>
<totfact> 0.14687758E+05</totfact>
</mgrwt>
</event>
<event>
 5      1 +7.5707000e+03 7.92164900e+01 7.54677100e-03 1.33129000e-01
       -2 -1    0    0    0  501 -0.0000000000e+00 +0.0000000000e+00 +4.1789061344e+02 4.1789061344e+02 0.0000000000e+00 0.0000e+00 1.0000e+00
        1 -1    0    0  501    0 +0.0000000000e+00 -0.0000000000e+00 -3.7541242035e+00 3.7541242035e+00 0.0000000000e+00 0.0000e+00 -1.0000e+00
      -24  2    1    2    0    0 +0.0000000000e+00 +0.0000000000e+00 +4.1413648923e+02 4.2164473764e+02 7.9216494907e+01 0.0000e+00 0.0000e+00
       13  1    3    3    0    0 +4.6349707663e-01 -1.7020184645e+01 +1.6718915197e+01 2.3862599193e+01 0.0000000000e+00 0.0000e+00 -1.0000e+00
      -14  1    3    3    0    0 -4.6349707663e-01 +1.7020184645e+01 +3.9741757404e+02 3.9778213845e+02 0.0000000000e+00 0.0000e+00 1.0000e+00
<mgrwt>
<rscale>  0 0.79216495E+02</rscale>
<asrwt>0</asrwt>
<pdfrwt beam="1">  1        1 0.57755790E-03 0.79216495E+02</pdfrwt>
<pdfrwt beam="2">  1       -2 0.64290827E-01 0.79216495E+02</pdfrwt>
<totfact> 0.58857146E+04</totfact>
</mgrwt>
</event>
<event>
 5      1 +7.5707000e+03 7.84381500e+01 7.54677100e-03 1.33354300e-01
       -4 -1    0    0    0  501 -0.0000000000e+00 +0.0000000000e+00 +5.9864574936e+01 5.9864574936e+01 0.0000000000e+00 0.0000e+00 1.0000e+00
        3 -1    0    0  501    0 +0.0000000000e+00 -0.0000000000e+00 -2.5693591920e+01 2.5693591920e+01 0.0000000000e+00 0.0000e+00 -1.0000e+00
      -24  2    1    2    0    0 +0.0000000000e+00 +0.0000000000e+00 +3.4170983015e+01 8.5558166856e+01 7.8438152933e+01 0.0000e+00 0.0000e+00
       13  1    3    3    0    0 +3.2638772315e+01 +2.1146348378e+00 -6.5209693987e+00 3.3350924734e+01 0.0000000000e+00 0.0000e+00 -1.0000e+00
      -14  1    3    3    0    0 -3.2638772315e+01 -2.1146348378e+00 +4.0691952414e+01 5.2207242122e+01 0.0000000000e+00 0.0000e+00 1.0000e+00
<mgrwt>
<rscale>  0 0.78438153E+02</rscale>
<asrwt>0</asrwt>
<pdfrwt beam="1">  1        3 0.39528603E-02 0.78438153E+02</pdfrwt>
<pdfrwt beam="2">  1       -4 0.92099345E-02 0.78438153E+02</pdfrwt>
<totfact> 0.46377505E+04</totfact>
</mgrwt>
</event>
<event>
 5      1 +7.5707000e+03 7.98050300e+01 7.54677100e-03 1.32960600e-01
       -2 -1    0    0    0  501 -0.0000000000e+00 +0.0000000000e+00 +2.5734677227e+01 2.5734677227e+01 0.0000000000e+00 0.0000e+00 1.0000e+00
        1 -1    0    0  501    0 +0.0000000000e+00 -0.0000000000e+00 -6.1870245328e+01 6.1870245328e+01 0.0000000000e+00 0.0000e+00 -1.0000e+00
      -24  2    1    2    0    0 +0.0000000000e+00 +0.0000000000e+00 -3.6135568101e+01 8.7604922555e+01 7.9805032259e+01 0.0000e+00 0.0000e+00
       11  1    3    3    0    0 +3.1446400450e+01 +1.2588562692e+01 -4.1220997153e+01 5.3352775169e+01 0.0000000000e+00 0.0000e+00 -1.0000e+00
      -12  1    3    3    0    0 -3.1446400450e+01 -1.2588562692e+01 +5.0854290526e+00 3.4252147386e+01 0.0000000000e+00 0.0000e+00 1.0000e+00
<mgrwt>
<rscale>  0 0.79805032E+02</rscale>
<asrwt>0</asrwt>
<pdfrwt beam="1">  1        1 0.95184992E-02 0.79805032E+02</pdfrwt>
<pdfrwt beam="2">  1       -2 0.39591812E-02 0.79805032E+02</pdfrwt>
<totfact> 0.13695366E+05</totfact>
</mgrwt>
</event>
<event>
 5      1 +7.5707000e+03 8.02579000e+01 7.54677100e-03 1.32832100e-01
       -4 -1    0    0    0  501 -0.0000000000e+00 +0.0000000000e+00 +2.9778948203e+01 2.9778948203e+01 0.0000000000e+00 0.0000e+00 1.0000e+00
        3 -1    0    0  501    0 +0.0000000000e+00 -0.0000000000e+00 -5.4076213758e+01 5.4076213758e+01 0.0000000000e+00 0.0000e+00 -1.0000e+00
      -24  2    1    2    0    0 +0.0000000000e+00 +0.0000000000e+00 -2.4297265556e+01 8.3855161961e+01 8.0257903499e+01 0.0000e+00 0.0000e+00
       11  1    3    3    0    0 +2.3409117571e+00 +3.9899425434e+01 -1.5899635705e+01 4.3014444473e+01 0.0000000000e+00 0.0000e+00 -1.0000e+00
      -12  1    3    3    0    0 -2.3409117571e+00 -3.9899425434e+01 -8.3976298503e+00 4.0840717488e+01 0.0000000000e+00 0.0000e+00 1.0000e+00
<mgrwt>
<rscale>  0 0.80257903E+02</rscale>
<asrwt>0</asrwt>
<pdfrwt beam="1">  1        3 0.83194174E-02 0.80257903E+02</pdfrwt>
<pdfrwt beam="2">  1       -4 0.45813767E-02 0.80257903E+02</pdfrwt>
<totfact> 0.44702721E+04</totfact>
</mgrwt>
</event>
<event>
 5      1 +7.5707000e+03 7.76169800e+01 7.54677100e-03 1.33595300e-01
        1 -1    0    0  501    0 +0.0000000000e+00 +0.0000000000e+00 +5.2988861162e+01 5.2988861162e+01 0.0000000000e+00 0.0000e+00 -1.0000e+00
       -2 -1    0    0    0  501 -0.0000000000e+00 -0.0000000000e+00 -2.8422935751e+01 2.8422935751e+01 0.0000000000e+00 0.0000e+00 1.0000e+00
      -24  2    1    2    0    0 +0.0000000000e+00 +0.0000000000e+00 +2.4565925411e+01 8.1411796913e+01 7.7616982583e+01 0.0000e+00 0.0000e+00
       13  1    3    3    0    0 +3.3668661612e+01 +1.5158170041e+01 +2.4814916932e+01 4.4487402667e+01 0.0000000000e+00 0.0000e+00 -1.0000e+00
      -14  1    3    3    0    0 -3.3668661612e+01 -1.5158170041e+01 -2.4899152108e-01 3.6924394247e+01 0.0000000000e+00 0.0000e+00 1.0000e+00
<mgrwt>
<rscale>  0 0.77616983E+02</rscale>
<asrwt>0</asrwt>
<pdfrwt beam="1">  1        1 0.81521324E-02 0.77616983E+02</pdfrwt>
<pdfrwt beam="2">  1       -2 0.43727594E-02 0.77616983E+02</pdfrwt>
<totfact> 0.14436125E+05</totfact>
</mgrwt>
</event>
<event>
 5      1 +7.5707000e+03 8.00983200e+01 7.54677100e-03 1.32877300e-01
        1 -1    0    0  501    0 +0.0000000000e+00 +0.0000000000e+00 +1.9511975989e+02 1.9511975989e+02 0.0000000000e+00 0.0000e+00 -1.0000e+00
       -2 -1    0    0    0  501 -0.0000000000e+00 -0.0000000000e+00 -8.2202600977e+00 8.2202600977e+00 0.0000000000e+00 0.0000e+00 1.0000e+00
      -24  2    1    2    0    0 +0.0000000000e+00 +0.0000000000e+00 +1.8689949980e+02 2.0334001999e+02 8.0098318997e+01 0.0000e+00 0.0000e+00
       11  1    3    3    0    0 -1.9571948890e+00 +3.9607529036e+01 +1.0766340662e+02 1.1473445905e+02 0.0000000000e+00 0.0000e+00 -1.0000e+00
      -12  1    3    3    0    0 +1.9571948890e+00 -3.9607529036e+01 +7.9236093175e+01 8.8605560941e+01 0.0000000000e+00 0.0000e+00 1.0000e+00
<mgrwt>
<rscale>  0 0.80098319E+02</rscale>
<asrwt>0</asrwt>
<pdfrwt beam="1">  1        1 0.30018421E-01 0.80098319E+02</pdfrwt>
<pdfrwt beam="2">  1       -2 0.12646555E-02 0.80098319E+02</pdfrwt>
<totfact> 0.16540215E+05</totfact>
</mgrwt>
</event>
<event>
 5      1 +7.5707000e+03 7.98441700e+01 7.54677100e-03 1.32949400e-01
        3 -1    0    0  501    0 +0.0000000000e+00 +0.0000000000e+00 +1.5165731402e+02 1.5165731402e+02 0.0000000000e+00 0.0000e+00 -1.0000e+00
       -4 -1    0    0    0  501 -0.0000000000e+00 -0.0000000000e+00 -1.0509039646e+01 1.0509039646e+01 0.0000000000e+00 0.0000e+00 1.0000e+00
      -24  2    1    2    0    0 +0.0000000000e+00 +0.0000000000e+00 +1.4114827438e+02 1.6216635367e+02 7.9844166366e+01 0.0000e+00 0.0000e+00
       11  1    3    3    0    0 -1.2342343254e+01 +3.6528733019e+01 +9.1592261284e+01 9.9377180983e+01 0.0000000000e+00 0.0000e+00 -1.0000e+00
      -12  1    3    3    0    0 +1.2342343254e+01 -3.6528733019e+01 +4.9556013094e+01 6.2789172687e+01 0.0000000000e+00 0.0000e+00 1.0000e+00
<mgrwt>
<rscale>  0 0.79844166E+02</rscale>
<asrwt>0</asrwt>
<pdfrwt beam="1">  1        3 0.23331893E-01 0.79844166E+02</pdfrwt>
<pdfrwt beam="2">  1       -4 0.16167754E-02 0.79844166E+02</pdfrwt>
<totfact> 0.39321388E+04</totfact>
</mgrwt>
</event>
<event>
 5      1 +7.5707000e+03 7.99782100e+01 7.54677100e-03 1.32911300e-01
       -2 -1    0    0    0  501 -0.0000000000e+00 +0.0000000000e+00 +1.5526179267e+02 1.5526179267e+02 0.0000000000e+00 0.0000e+00 1.0000e+00
        1 -1    0    0  501    0 +0.0000000000e+00 -0.0000000000e+00 -1.0299561583e+01 1.0299561583e+01 0.0000000000e+00 0.0000e+00 -1.0000e+00
      -24  2    1    2    0    0 +0.0000000000e+00 +0.0000000000e+00 +1.4496223108e+02 1.6556135425e+02 7.9978206909e+01 0.0000e+00 0.0000e+00
       11  1    3    3    0    0 -2.5705184347e+01 -7.9452917290e+00 +1.1238753049e+01 2.9158081780e+01 0.0000000000e+00 0.0000e+00 -1.0000e+00
      -12  1    3    3    0    0 +2.5705184347e+01 +7.9452917290e+00 +1.3372347803e+02 1.3640327247e+02 0.0000000000e+00 0.0000e+00 1.0000e+00
<mgrwt>
<rscale>  0 0.79978207E+02</rscale>
<asrwt>0</asrwt>
<pdfrwt beam="1">  1        1 0.15845480E-02 0.79978207E+02</pdfrwt>
<pdfrwt beam="2">  1       -2 0.23886428E-01 0.79978207E+02</pdfrwt>
<totfact> 0.93498040E+04</totfact>
</mgrwt>
</event>
<event>
 5      1 +7.5707000e+03 7.95510100e+01 7.54677100e-03 1.33033000e-01
        1 -1    0    0  501    0 +0.0000000000e+00 +0.0000000000e+00 +1.9414102078e+01 1.9414102078e+01 0.0000000000e+00 0.0000e+00 -1.0000e+00
       -2 -1    0    0    0  501 -0.0000000000e+00 -0.0000000000e+00 -8.1491829824e+01 8.1491829824e+01 0.0000000000e+00 0.0000e+00 1.0000e+00
      -24  2    1    2    0    0 +0.0000000000e+00 +0.0000000000e+00 -6.2077727746e+01 1.0090593190e+02 7.9551007604e+01 0.0000e+00 0.0000e+00
       13  1    3    3    0    0 +1.7232176744e+01 -7.3881398975e+00 +1.3457250512e+01 2.3078780683e+01 0.0000000000e+00 0.0000e+00 -1.0000e+00
      -14  1    3    3    0    0 -1.7232176744e+01 +7.3881398975e+00 -7.5534978258e+01 7.7827151219e+01 0.0000000000e+00 0.0000e+00 1.0000e+00
<mgrwt>
<rscale>  0 0.79551008E+02</rscale>
<asrwt>0</asrwt>
<pdfrwt beam="1">  1        1 0.29867849E-02 0.79551008E+02</pdfrwt>
<pdfrwt beam="2">  1       -2 0.12537205E-01 0.79551008E+02</pdfrwt>
<totfact> 0.11292115E+05</totfact>
</mgrwt>
</event>
<event>
 5      1 +7.5707000e+03 7.98620400e+01 7.54677100e-03 1.32944300e-01
        3 -1    0    0  501    0 +0.0000000000e+00 +0.0000000000e+00 +5.6181410524e+01 5.6181410524e+01 0.0000000000e+00 0.0000e+00 -1.0000e+00
       -4 -1    0    0    0  501 -0.0000000000e+00 -0.0000000000e+00 -2.8381029087e+01 2.8381029087e+01 0.0000000000e+00 0.0000e+00 1.0000e+00
      -24  2    1    2    0    0 +0.0000000000e+00 +0.0000000000e+00 +2.7800381436e+01 8.4562439611e+01 7.9862037195e+01 0.0000e+00 0.0000e+00
       13  1    3    3    0    0 +1.1219602965e+01 +1.6795583037e+01 +5.0373381860e+01 5.4271988173e+01 0.0000000000e+00 0.0000e+00 -1.0000e+00
      -14  1    3    3    0    0 -1.1219602965e+01 -1.6795583037e+01 -2.2573000423e+01 3.0290451438e+01 0.0000000000e+00 0.0000e+00 1.0000e+00
<mgrwt>
<rscale>  0 0.79862037E+02</rscale>
<asrwt>0</asrwt>
<pdfrwt beam="1">  1        3 0.86432939E-02 0.79862037E+02</pdfrwt>
<pdfrwt beam="2">  1       -4 0.43663122E-02 0.79862037E+02</pdfrwt>
<totfact> 0.45277430E+04</totfact>
</mgrwt>
</event>
<event>
 5      1 +7.5707000e+03 8.07475200e+01 7.54677100e-03 1.32694300e-01
        1 -1    0    0  501    0 +0.0000000000e+00 +0.0000000000e+00 +7.5008670707e+00 7.5008670707e+00 0.0000000000e+00 0.0000e+00 -1.0000e+00
       -2 -1    0    0    0  501 -0.0000000000e+00 -0.0000000000e+00 -2.1731361495e+02 2.1731361495e+02 0.0000000000e+00 0.0000e+00 1.0000e+00
      -24  2    1    2    0    0 +0.0000000000e+00 +0.0000000000e+00 -2.0981274788e+02 2.2481448202e+02 8.0747521037e+01 0.0000e+00 0.0000e+00
       13  1    3    3    0    0 +1.8339392621e+01 +3.5800034954e+01 -9.5235769921e+01 1.0338195054e+02 0.0000000000e+00 0.0000e+00 -1.0000e+00
      -14  1    3    3    0    0 -1.8339392621e+01 -3.5800034954e+01 -1.1457697796e+02 1.2143253148e+02 0.0000000000e+00 0.0000e+00 1.0000e+00
<mgrwt>
<rscale>  0 0.80747521E+02</rscale>
<asrwt>0</asrwt>
<pdfrwt beam="1">  1        1 0.11539795E-02 0.80747521E+02</pdfrwt>
<pdfrwt beam="2">  1       -2 0.33432864E-01 0.80747521E+02</pdfrwt>
<totfact> 0.80223976E+04</totfact>
</mgrwt>
</event>
<event>
 5      1 +7.5707000e+03 7.86487900e+01 7.54677100e-03 1.33293000e-01
       -4 -1    0    0    0  501 -0.0000000000e+00 +0.0000000000e+00 +7.3225616985e+01 7.3225616985e+01 0.0000000000e+00 0.0000e+00 1.0000e+00
        3 -1    0    0  501    0 +0.0000000000e+00 -0.0000000000e+00 -2.1118403553e+01 2.1118403553e+01 0.0000000000e+00 0.0000e+00 -1.0000e+00
      -24  2    1    2    0    0 +0.0000000000e+00 +0.0000000000e+00 +5.2107213432e+01 9.4344020538e+01 7.8648792233e+01 0.0000e+00 0.0000e+00
       11  1    3    3    0    0 -9.0469339992e+00 +3.7468218781e+01 +3.5398925418e+01 5.2333529922e+01 0.0000000000e+00 0.0000e+00 -1.0000e+00
      -12  1    3    3    0    0 +9.0469339992e+00 -3.7468218781e+01 +1.6708288015e+01 4.2010490616e+01 0.0000000000e+00 0.0000e+00 1.0000e+00
<mgrwt>
<rscale>  0 0.78648792E+02</rscale>
<asrwt>0</asrwt>
<pdfrwt beam="1">  1        3 0.32489852E-02 0.78648792E+02</pdfrwt>
<pdfrwt beam="2">  1       -4 0.11265479E-01 0.78648792E+02</pdfrwt>
<totfact> 0.44851117E+04</totfact>
</mgrwt>
</event>
<event>
 5      1 +7.5707000e+03 7.98497300e+01 7.54677100e-03 1.32947800e-01
        1 -1    0    0  501    0 +0.0000000000e+00 +0.0000000000e+00 +2.7029787255e+01 2.7029787255e+01 0.0000000000e+00 0.0000e+00 -1.0000e+00
       -2 -1    0    0    0  501 -0.0000000000e+00 -0.0000000000e+00 -5.8971792498e+01 5.8971792498e+01 0.0000000000e+00 0.0000e+00 1.0000e+00
      -24  2    1    2    0    0 +0.0000000000e+00 +0.0000000000e+00 -3.1942005243e+01 8.6001579753e+01 7.9849734007e+01 0.0000e+00 0.0000e+00
       13  1    3    3    0    0 -1.3082582751e+01 -2.1616173611e+01 +1.7323072240e+01 3.0634976168e+01 0.0000000000e+00 0.0000e+00 -1.0000e+00
      -14  1    3    3    0    0 +1.3082582751e+01 +2.1616173611e+01 -4.9265077483e+01 5.5366603584e+01 0.0000000000e+00 0.0000e+00 1.0000e+00
<mgrwt>
<rscale>  0 0.79849734E+02</rscale>
<asrwt>0</asrwt>
<pdfrwt beam="1">  1        1 0.41584288E-02 0.79849734E+02</pdfrwt>
<pdfrwt beam="2">  1       -2 0.90725834E-02 0.79849734E+02</pdfrwt>
<totfact> 0.11933608E+05</totfact>
</mgrwt>
</event>
<event>
 5      1 +7.5707000e+03 7.96596200e+01 7.54677100e-03 1.33002000e-01
       -4 -1    0    0    0  501 -0.0000000000e+00 +0.0000000000e+00 +3.3748994528e+02 3.3748994528e+02 0.0000000000e+00 0.0000e+00 1.0000e+00
        3 -1    0    0  501    0 +0.0000000000e+00 -0.0000000000e+00 -4.7006258371e+00 4.7006258371e+00 0.0000000000e+00 0.0000e+00 -1.0000e+00
      -24  2    1    2    0    0 +0.0000000000e+00 +0.0000000000e+00 +3.3278931944e+02 3.4219057111e+02 7.9659624817e+01 0.0000e+00 0.0000e+00
       11  1    3    3    0    0 +5.9447368653e+00 +1.8603905302e+01 +1.7280914908e+01 2.6078251647e+01 0.0000000000e+00 0.0000e+00 -1.0000e+00
      -12  1    3    3    0    0 -5.9447368653e+00 -1.8603905302e+01 +3.1550840453e+02 3.1611231947e+02 0.0000000000e+00 0.0000e+00 1.0000e+00
<mgrwt>
<rscale>  0 0.79659625E+02</rscale>
<asrwt>0</asrwt>
<pdfrwt beam="1">  1        3 0.72317347E-03 0.79659625E+02</pdfrwt>
<pdfrwt beam="2">  1       -4 0.51921511E-01 0.79659625E+02</pdfrwt>
<totfact> 0.25997665E+04</totfact>
</mgrwt>
</event>
<event>
 5      1 +7.5707000e+03 7.99826400e+01 7.54677100e-03 1.32910100e-01
        1 -1    0    0  501    0 +0.0000000000e+00 +0.0000000000e+00 +2.4114669597e+02 2.4114669597e+02 0.0000000000e+00 0.0000e+00 -1.0000e+00
       -2 -1    0    0    0  501 -0.0000000000e+00 -0.0000000000e+00 -6.6320866177e+00 6.6320866177e+00 0.0000000000e+00 0.0000e+00 1.0000e+00
      -24  2    1    2    0    0 +0.0000000000e+00 +0.0000000000e+00 +2.3451460935e+02 2.4777878258e+02 7.9982642497e+01 0.0000e+00 0.0000e+00
       11  1    3    3    0    0 -2.5819198481e+01 +2.6666465342e+01 +1.6337081130e+02 1.6753433490e+02 0.0000000000e+00 0.0000e+00 -1.0000e+00
      -12  1    3    3    0    0 +2.5819198481e+01 -2.6666465342e+01 +7.1143798048e+01 8.0244447688e+01 0.0000000000e+00 0.0000e+00 1.0000e+00
<mgrwt>
<rscale>  0 0.79982642E+02</rscale>
<asrwt>0</asrwt>
<pdfrwt beam="1">  1        1 0.37099485E-01 0.79982642E+02</pdfrwt>
<pdfrwt beam="2">  1       -2 0.10203212E-02 0.79982642E+02</pdfrwt>
<totfact> 0.17303254E+05</totfact>
</mgrwt>
</event>
<event>
 5      1 +7.5707000e+03 8.18511700e+01 7.54677100e-03 1.32387900e-01
       -2 -1    0    0    0  501 -0.0000000000e+00 +0.0000000000e+00 +1.9637213410e+01 1.9637213410e+01 0.0000000000e+00 0.0000e+00 1.0000e+00
        1 -1    0    0  501    0 +0.0000000000e+00 -0.0000000000e+00 -8.5292320042e+01 8.5292320042e+01 0.0000000000e+00 0.0000e+00 -1.0000e+00
      -24  2    1    2    0    0 +0.0000000000e+00 +0.0000000000e+00 -6.5655106632e+01 1.0492953345e+02 8.1851169592e+01 0.0000e+00 0.0000e+00
       11  1    3    3    0    0 +3.4573722261e+01 -2.0031443900e+01 -4.4171406516e+01 5.9562691085e+01 0.0000000000e+00 0.0000e+00 -1.0000e+00
      -12  1    3    3    0    0 -3.4573722261e+01 +2.0031443900e+01 -2.1483700116e+01 4.5366842367e+01 0.0000000000e+00 0.0000e+00 1.0000e+00
<mgrwt>
<rscale>  0 0.81851170E+02</rscale>
<asrwt>0</asrwt>
<pdfrwt beam="1">  1        1 0.13121895E-01 0.81851170E+02</pdfrwt>
<pdfrwt beam="2">  1       -2 0.30211098E-02 0.81851170E+02</pdfrwt>
<totfact> 0.13452971E+05</totfact>
</mgrwt>
</event>
<event>
 5      1 +7.5707000e+03 8.05640600e+01 7.54677100e-03 1.32745800e-01
        1 -1    0    0  501    0 +0.0000000000e+00 +0.0000000000e+00 +7.6980057495e+01 7.6980057495e+01 0.0000000000e+00 0.0000e+00 -1.0000e+00
       -2 -1    0    0    0  501 -0.0000000000e+00 -0.0000000000e+00 -2.1078731497e+01 2.1078731497e+01 0.0000000000e+00 0.0000e+00 1.0000e+00
      -24  2    1    2    0    0 +0.0000000000e+00 +0.0000000000e+00 +5.5901325998e+01 9.8058788991e+01 8.0564060536e+01 0.0000e+00 0.0000e+00
       13  1    3    3    0    0 +2.8236779993e+00 -3.4170059033e+01 +2.2149743449e+00 3.4358000569e+01 0.0000000000e+00 0.0000e+00 -1.0000e+00
      -14  1    3    3    0    0 -2.8236779993e+00 +3.4170059033e+01 +5.3686351653e+01 6.3700788422e+01 0.0000000000e+00 0.0000e+00 1.0000e+00
<mgrwt>
<rscale>  0 0.80564061E+02</rscale>
<asrwt>0</asrwt>
<pdfrwt beam="1">  1        1 0.11843086E-01 0.80564061E+02</pdfrwt>
<pdfrwt beam="2">  1       -2 0.32428818E-02 0.80564061E+02</pdfrwt>
<totfact> 0.13814622E+05</totfact>
</mgrwt>
</event>
<event>
 5      1 +7.5707000e+03 8.11288400e+01 7.54677100e-03 1.32587800e-01
       -2 -1    0    0    0  501 -0.0000000000e+00 +0.0000000000e+00 +2.2340214399e+01 2.2340214399e+01 0.0000000000e+00 0.0000e+00 1.0000e+00
        1 -1    0    0  501    0 +0.0000000000e+00 -0.0000000000e+00 -7.3655164308e+01 7.3655164308e+01 0.0000000000e+00 0.0000e+00 -1.0000e+00
      -24  2    1    2    0    0 +0.0000000000e+00 +0.0000000000e+00 -5.1314949908e+01 9.5995378707e+01 8.1128839810e+01 0.0000e+00 0.0000e+00
       13  1    3    3    0    0 -3.3706700944e+01 +7.2756061386e+00 -5.0935665863e+01 6.1510309625e+01 0.0000000000e+00 0.0000e+00 -1.0000e+00
      -14  1    3    3    0    0 +3.3706700944e+01 -7.2756061386e+00 -3.7928404498e-01 3.4485069082e+01 0.0000000000e+00 0.0000e+00 1.0000e+00
<mgrwt>
<rscale>  0 0.81128840E+02</rscale>
<asrwt>0</asrwt>
<pdfrwt beam="1">  1        1 0.11331564E-01 0.81128840E+02</pdfrwt>
<pdfrwt beam="2">  1       -2 0.34369560E-02 0.81128840E+02</pdfrwt>
<totfact> 0.13457354E+05</totfact>
</mgrwt>
</event>
<event>
 5      1 +7.5707000e+03 7.54781300e+01 7.54677100e-03 1.34239700e-01
        1 -1    0    0  501    0 +0.0000000000e+00 +0.0000000000e+00 +2.4511931836e+02 2.4511931836e+02 0.0000000000e+00 0.0000e+00 -1.0000e+00
       -2 -1    0    0    0  501 -0.0000000000e+00 -0.0000000000e+00 -5.8103832755e+00 5.8103832755e+00 0.0000000000e+00 0.0000e+00 1.0000e+00
      -24  2    1    2    0    0 +0.0000000000e+00 +0.0000000000e+00 +2.3930893509e+02 2.5092970164e+02 7.5478134261e+01 0.0000e+00 0.0000e+00
       13  1    3    3    0    0 +3.2879456325e+01 -5.8664940481e+00 +1.7807202444e+02 1.8117704129e+02 0.0000000000e+00 0.0000e+00 -1.0000e+00
      -14  1    3    3    0    0 -3.2879456325e+01 +5.8664940481e+00 +6.1236910641e+01 6.9752660347e+01 0.0000000000e+00 0.0000e+00 1.0000e+00
<mgrwt>
<rscale>  0 0.75478134E+02</rscale>
<asrwt>0</asrwt>
<pdfrwt beam="1">  1        1 0.37710656E-01 0.75478134E+02</pdfrwt>
<pdfrwt beam="2">  1       -2 0.89390531E-03 0.75478134E+02</pdfrwt>
<totfact> 0.20224968E+05</totfact>
</mgrwt>
</event>
<event>
 5      1 +7.5707000e+03 7.85672800e+01 7.54677100e-03 1.33316700e-01
        3 -1    0    0  501    0 +0.0000000000e+00 +0.0000000000e+00 +3.8984243935e+02 3.8984243935e+02 0.0000000000e+00 0.0000e+00 -1.0000e+00
       -4 -1    0    0    0  501 -0.0000000000e+00 -0.0000000000e+00 -3.9585339274e+00 3.9585339274e+00 0.0000000000e+00 0.0000e+00 1.0000e+00
      -24  2    1    2    0    0 +0.0000000000e+00 +0.0000000000e+00 +3.8588390542e+02 3.9380097328e+02 7.8567283841e+01 0.0000e+00 0.0000e+00
       13  1    3    3    0    0 +1.8602291390e+01 +3.4284019658e+01 +2.1632586167e+02 2.1981427997e+02 0.0000000000e+00 0.0000e+00 -1.0000e+00
      -14  1    3    3    0    0 -1.8602291390e+01 -3.4284019658e+01 +1.6955804375e+02 1.7398669331e+02 0.0000000000e+00 0.0000e+00 1.0000e+00
<mgrwt>
<rscale>  0 0.78567284E+02</rscale>
<asrwt>0</asrwt>
<pdfrwt beam="1">  1        3 0.59975730E-01 0.78567284E+02</pdfrwt>
<pdfrwt beam="2">  1       -4 0.60900553E-03 0.78567284E+02</pdfrwt>
<totfact> 0.28143363E+04</totfact>
</mgrwt>
</event>
<event>
 5      1 +7.5707000e+03 7.99873400e+01 7.54677100e-03 1.32908700e-01
        3 -1    0    0  501    0 +0.0000000000e+00 +0.0000000000e+00 +1.4339696318e+02 1.4339696318e+02 0.0000000000e+00 0.0000e+00 -1.0000e+00
       -4 -1    0    0    0  501 -0.0000000000e+00 -0.0000000000e+00 -1.1154305697e+01 1.1154305697e+01 0.0000000000e+00 0.0000e+00 1.0000e+00
      -24  2    1    2    0    0 +0.0000000000e+00 +0.0000000000e+00 +1.3224265748e+02 1.5455126888e+02 7.9987338082e+01 0.0000e+00 0.0000e+00
       11  1    3    3    0    0 +2.4439984305e+01 -2.2945282277e+01 +1.0826336447e+02 1.1333470297e+02 0.0000000000e+00 0.0000e+00 -1.0000e+00
      -12  1    3    3    0    0 -2.4439984305e+01 +2.2945282277e+01 +2.3979293015e+01 4.1216565906e+01 0.0000000000e+00 0.0000e+00 1.0000e+00
<mgrwt>
<rscale>  0 0.79987338E+02</rscale>
<asrwt>0</asrwt>
<pdfrwt beam="1">  1        3 0.22061070E-01 0.79987338E+02</pdfrwt>
<pdfrwt beam="2">  1       -4 0.17160471E-02 0.79987338E+02</pdfrwt>
<totfact> 0.39684031E+04</totfact>
</mgrwt>
</event>
<event>
 5      1 +7.5707000e+03 8.10941400e+01 7.54677100e-03 1.32597500e-01
        1 -1    0    0  501    0 +0.0000000000e+00 +0.0000000000e+00 +4.3861304526e+00 4.3861304526e+00 0.0000000000e+00 0.0000e+00 -1.0000e+00
       -2 -1    0    0    0  501 -0.0000000000e+00 -0.0000000000e+00 -3.7483260115e+02 3.7483260115e+02 0.0000000000e+00 0.0000e+00 1.0000e+00
      -24  2    1    2    0    0 +0.0000000000e+00 +0.0000000000e+00 -3.7044647070e+02 3.7921873161e+02 8.1094135091e+01 0.0000e+00 0.0000e+00
       11  1    3    3    0    0 +3.0183395925e+01 +2.2828401020e+01 -1.1715303886e+02 1.2311380018e+02 0.0000000000e+00 0.0000e+00 -1.0000e+00
      -12  1    3    3    0    0 -3.0183395925e+01 -2.2828401020e+01 -2.5329343184e+02 2.5610493142e+02 0.0000000000e+00 0.0000e+00 1.0000e+00
<mgrwt>
<rscale>  0 0.81094135E+02</rscale>
<asrwt>0</asrwt>
<pdfrwt beam="1">  1        1 0.67478909E-03 0.81094135E+02</pdfrwt>
<pdfrwt beam="2">  1       -2 0.57666572E-01 0.81094135E+02</pdfrwt>
<totfact> 0.59509515E+04</totfact>
</mgrwt>
</event>
<event>
 5      1 +7.5707000e+03 8.06562700e+01 7.54677100e-03 1.32719900e-01
        1 -1    0    0  501    0 +0.0000000000e+00 +0.0000000000e+00 +1.8452215435e+01 1.8452215435e+01 0.0000000000e+00 0.0000e+00 -1.0000e+00
       -2 -1    0    0    0  501 -0.0000000000e+00 -0.0000000000e+00 -8.8138924861e+01 8.8138924861e+01 0.0000000000e+00 0.0000e+00 1.0000e+00
      -24  2    1    2    0    0 +0.0000000000e+00 +0.0000000000e+00 -6.9686709425e+01 1.0659114030e+02 8.0656268938e+01 0.0000e+00 0.0000e+00
       11  1    3    3    0    0 -3.3839195324e+01 +1.7185447154e+01 -1.6823344884e+01 4.1514523569e+01 0.0000000000e+00 0.0000e+00 -1.0000e+00
      -12  1    3    3    0    0 +3.3839195324e+01 -1.7185447154e+01 -5.2863364541e+01 6.5076616727e+01 0.0000000000e+00 0.0000e+00 1.0000e+00
<mgrwt>
<rscale>  0 0.80656269E+02</rscale>
<asrwt>0</asrwt>
<pdfrwt beam="1">  1        1 0.28388025E-02 0.80656269E+02</pdfrwt>
<pdfrwt beam="2">  1       -2 0.13559834E-01 0.80656269E+02</pdfrwt>
<totfact> 0.10711683E+05</totfact>
</mgrwt>
</event>
<event>
 5      1 +7.5707000e+03 7.90092400e+01 7.54677100e-03 1.33188700e-01
       -4 -1    0    0    0  501 -0.0000000000e+00 +0.0000000000e+00 +4.4899796970e+00 4.4899796970e+00 0.0000000000e+00 0.0000e+00 1.0000e+00
        3 -1    0    0  501    0 +0.0000000000e+00 -0.0000000000e+00 -3.4757725184e+02 3.4757725184e+02 0.0000000000e+00 0.0000e+00 -1.0000e+00
      -24  2    1    2    0    0 +0.0000000000e+00 +0.0000000000e+00 -3.4308727214e+02 3.5206723154e+02 7.9009235003e+01 0.0000e+00 0.0000e+00
       11  1    3    3    0    0 +3.0413826463e+01 -9.7667218099e+00 -6.7973360623e+01 7.5105042770e+01 0.0000000000e+00 0.0000e+00 -1.0000e+00
      -12  1    3    3    0    0 -3.0413826463e+01 +9.7667218099e+00 -2.7511391152e+02 2.7696218877e+02 0.0000000000e+00 0.0000e+00 1.0000e+00
<mgrwt>
<rscale>  0 0.79009235E+02</rscale>
<asrwt>0</asrwt>
<pdfrwt beam="1">  1        3 0.53473421E-01 0.79009235E+02</pdfrwt>
<pdfrwt beam="2">  1       -4 0.69076614E-03 0.79009235E+02</pdfrwt>
<totfact> 0.29503398E+04</totfact>
</mgrwt>
</event>
<event>
 5      1 +7.5707000e+03 8.17096900e+01 7.54677100e-03 1.32426800e-01
        3 -1    0    0  501    0 +0.0000000000e+00 +0.0000000000e+00 +1.4418364469e+01 1.4418364469e+01 0.0000000000e+00 0.0000e+00 -1.0000e+00
       -4 -1    0    0    0  501 -0.0000000000e+00 -0.0000000000e+00 -1.1576336158e+02 1.1576336158e+02 0.0000000000e+00 0.0000e+00 1.0000e+00
      -24  2    1    2    0    0 +0.0000000000e+00 +0.0000000000e+00 -1.0134499711e+02 1.3018172605e+02 8.1709689499e+01 0.0000e+00 0.0000e+00
       11  1    3    3    0    0 +1.5762566525e+01 -2.7327325775e+01 -9.3138046851e+00 3.2893588968e+01 0.0000000000e+00 0.0000e+00 -1.0000e+00
      -12  1    3    3    0    0 -1.5762566525e+01 +2.7327325775e+01 -9.2031192429e+01 9.7288137085e+01 0.0000000000e+00 0.0000e+00 1.0000e+00
<mgrwt>
<rscale>  0 0.81709689E+02</rscale>
<asrwt>0</asrwt>
<pdfrwt beam="1">  1        3 0.22182099E-02 0.81709689E+02</pdfrwt>
<pdfrwt beam="2">  1       -4 0.17809748E-01 0.81709689E+02</pdfrwt>
<totfact> 0.36947926E+04</totfact>
</mgrwt>
</event>
<event>
 5      1 +7.5707000e+03 7.84654600e+01 7.54677100e-03 1.33346300e-01
       -2 -1    0    0    0  501 -0.0000000000e+00 +0.0000000000e+00 +1.6060348086e+01 1.6060348086e+01 0.0000000000e+00 0.0000e+00 1.0000e+00
        1 -1    0    0  501    0 +0.0000000000e+00 -0.0000000000e+00 -9.5838968218e+01 9.5838968218e+01 0.0000000000e+00 0.0000e+00 -1.0000e+00
      -24  2    1    2    0    0 +0.0000000000e+00 +0.0000000000e+00 -7.9778620132e+01 1.1189931630e+02 7.8465462206e+01 0.0000e+00 0.0000e+00
       13  1    3    3    0    0 +5.0307461564e+00 +3.8737766096e+01 -3.4691533672e+01 5.2243903353e+01 0.0000000000e+00 0.0000e+00 -1.0000e+00
      -14  1    3    3    0    0 -5.0307461564e+00 -3.8737766096e+01 -4.5087086459e+01 5.9655412951e+01 0.0000000000e+00 0.0000e+00 1.0000e+00
<mgrwt>
<rscale>  0 0.78465462E+02</rscale>
<asrwt>0</asrwt>
<pdfrwt beam="1">  1        1 0.14744456E-01 0.78465462E+02</pdfrwt>
<pdfrwt beam="2">  1       -2 0.24708228E-02 0.78465462E+02</pdfrwt>
<totfact> 0.15379263E+05</totfact>
</mgrwt>
</event>
<event>
 5      1 +7.5707000e+03 7.95763600e+01 7.54677100e-03 1.33025800e-01
        1 -1    0    0  501    0 +0.0000000000e+00 +0.0000000000e+00 +6.1266592040e+01 6.1266592040e+01 0.0000000000e+00 0.0000e+00 -1.0000e+00
       -2 -1    0    0    0  501 -0.0000000000e+00 -0.0000000000e+00 -2.5839521847e+01 2.5839521847e+01 0.0000000000e+00 0.0000e+00 1.0000e+00
      -24  2    1    2    0    0 +0.0000000000e+00 +0.0000000000e+00 +3.5427070193e+01 8.7106113887e+01 7.9576364418e+01 0.0000e+00 0.0000e+00
       13  1    3    3    0    0 -7.0570929000e+00 -3.1789356429e+01 +4.2740304680e+01 5.3731735375e+01 0.0000000000e+00 0.0000e+00 -1.0000e+00
      -14  1    3    3    0    0 +7.0570929000e+00 +3.1789356429e+01 -7.3132344870e+00 3.3374378511e+01 0.0000000000e+00 0.0000e+00 1.0000e+00
<mgrwt>
<rscale>  0 0.79576364E+02</rscale>
<asrwt>0</asrwt>
<pdfrwt beam="1">  1        1 0.94256295E-02 0.79576364E+02</pdfrwt>
<pdfrwt beam="2">  1       -2 0.39753111E-02 0.79576364E+02</pdfrwt>
<totfact> 0.13782796E+05</totfact>
</mgrwt>
</event>
<event>
 5      1 +7.5707000e+03 8.07458300e+01 7.54677100e-03 1.32694800e-01
        1 -1    0    0  501    0 +0.0000000000e+00 +0.0000000000e+00 +1.0584603539e+01 1.0584603539e+01 0.0000000000e+00 0.0000e+00 -1.0000e+00
       -2 -1    0    0    0  501 -0.0000000000e+00 -0.0000000000e+00 -1.5399466161e+02 1.5399466161e+02 0.0000000000e+00 0.0000e+00 1.0000e+00
      -24  2    1    2    0    0 +0.0000000000e+00 +0.0000000000e+00 -1.4341005807e+02 1.6457926515e+02 8.0745834326e+01 0.0000e+00 0.0000e+00
       13  1    3    3    0    0 +3.7317185292e+01 +1.2636835020e+01 -5.3737228908e+01 6.6632962475e+01 0.0000000000e+00 0.0000e+00 -1.0000e+00
      -14  1    3    3    0    0 -3.7317185292e+01 -1.2636835020e+01 -8.9672829165e+01 9.7946302676e+01 0.0000000000e+00 0.0000e+00 1.0000e+00
<mgrwt>
<rscale>  0 0.80745834E+02</rscale>
<asrwt>0</asrwt>
<pdfrwt beam="1">  1        1 0.16284007E-02 0.80745834E+02</pdfrwt>
<pdfrwt beam="2">  1       -2 0.23691485E-01 0.80745834E+02</pdfrwt>
<totfact> 0.91477757E+04</totfact>
</mgrwt>
</event>
<event>
 5      1 +7.5707000e+03 8.09547900e+01 7.54677100e-03 1.32636300e-01
       -2 -1    0    0    0  501 -0.0000000000e+00 +0.0000000000e+00 +5.7230783512e+01 5.7230783512e+01 0.0000000000e+00 0.0000e+00 1.0000e+00
        1 -1    0    0  501    0 +0.0000000000e+00 -0.0000000000e+00 -2.8628294047e+01 2.8628294047e+01 0.0000000000e+00 0.0000e+00 -1.0000e+00
      -24  2    1    2    0    0 +0.0000000000e+00 +0.0000000000e+00 +2.8602489465e+01 8.5859077558e+01 8.0954794766e+01 0.0000e+00 0.0000e+00
       11  1    3    3    0    0 -4.0278254689e+01 -2.6699181703e+00 +1.1127744852e+01 4.1872341340e+01 0.0000000000e+00 0.0000e+00 -1.0000e+00
      -12  1    3    3    0    0 +4.0278254689e+01 +2.6699181703e+00 +1.7474744613e+01 4.3986736218e+01 0.0000000000e+00 0.0000e+00 1.0000e+00
<mgrwt>
<rscale>  0 0.80954795E+02</rscale>
<asrwt>0</asrwt>
<pdfrwt beam="1">  1        1 0.44043530E-02 0.80954795E+02</pdfrwt>
<pdfrwt beam="2">  1       -2 0.88047359E-02 0.80954795E+02</pdfrwt>
<totfact> 0.11590000E+05</totfact>
</mgrwt>
</event>
<event>
 5      1 +7.5707000e+03 8.16580800e+01 7.54677100e-03 1.32441100e-01
        1 -1    0    0  501    0 +0.0000000000e+00 +0.0000000000e+00 +6.1761576338e+01 6.1761576338e+01 0.0000000000e+00 0.0000e+00 -1.0000e+00
       -2 -1    0    0    0  501 -0.0000000000e+00 -0.0000000000e+00 -2.6991059416e+01 2.6991059416e+01 0.0000000000e+00 0.0000e+00 1.0000e+00
      -24  2    1    2    0    0 +0.0000000000e+00 +0.0000000000e+00 +3.4770516922e+01 8.8752635754e+01 8.1658076798e+01 0.0000e+00 0.0000e+00
       11  1    3    3    0    0 +1.2469238138e+01 +6.9059984787e+00 +5.8969451081e+01 6.0667708672e+01 0.0000000000e+00 0.0000e+00 -1.0000e+00
      -12  1    3    3    0    0 -1.2469238138e+01 -6.9059984787e+00 -2.4198934159e+01 2.8084927082e+01 0.0000000000e+00 0.0000e+00 1.0000e+00
<mgrwt>
<rscale>  0 0.81658077E+02</rscale>
<asrwt>0</asrwt>
<pdfrwt beam="1">  1        1 0.95017809E-02 0.81658077E+02</pdfrwt>
<pdfrwt beam="2">  1       -2 0.41524707E-02 0.81658077E+02</pdfrwt>
<totfact> 0.12852066E+05</totfact>
</mgrwt>
</event>
<event>
 5      1 +7.5707000e+03 9.47276500e+01 7.54677100e-03 1.29179100e-01
        1 -1    0    0  501    0 +0.0000000000e+00 +0.0000000000e+00 +3.7902856208e+01 3.7902856208e+01 0.0000000000e+00 0.0000e+00 -1.0000e+00
       -2 -1    0    0    0  501 -0.0000000000e+00 -0.0000000000e+00 -5.9186359922e+01 5.9186359922e+01 0.0000000000e+00 0.0000e+00 1.0000e+00
      -24  2    1    2    0    0 +0.0000000000e+00 +0.0000000000e+00 -2.1283503714e+01 9.7089216130e+01 9.4727653609e+01 0.0000e+00 0.0000e+00
       11  1    3    3    0    0 -3.1917635889e+01 -7.4665783409e+00 +2.4398967550e+01 4.0863123845e+01 0.0000000000e+00 0.0000e+00 -1.0000e+00
      -12  1    3    3    0    0 +3.1917635889e+01 +7.4665783409e+00 -4.5682471263e+01 5.6226092285e+01 0.0000000000e+00 0.0000e+00 1.0000e+00
<mgrwt>
<rscale>  0 0.94727654E+02</rscale>
<asrwt>0</asrwt>
<pdfrwt beam="1">  1        1 0.58312086E-02 0.94727654E+02</pdfrwt>
<pdfrwt beam="2">  1       -2 0.91055938E-02 0.94727654E+02</pdfrwt>
<totfact> 0.77388800E+04</totfact>
</mgrwt>
</event>
<event>
 5      1 +7.5707000e+03 7.78144800e+01 7.54677100e-03 1.33537100e-01
       -2 -1    0    0    0  501 -0.0000000000e+00 +0.0000000000e+00 +7.3334831257e+00 7.3334831257e+00 0.0000000000e+00 0.0000e+00 1.0000e+00
        1 -1    0    0  501    0 +0.0000000000e+00 -0.0000000000e+00 -2.0641941356e+02 2.0641941356e+02 0.0000000000e+00 0.0000e+00 -1.0000e+00
      -24  2    1    2    0    0 +0.0000000000e+00 +0.0000000000e+00 -1.9908593044e+02 2.1375289669e+02 7.7814479018e+01 0.0000e+00 0.0000e+00
       13  1    3    3    0    0 -2.4604661236e+01 -1.7885882918e+01 -1.6618022427e+02 1.6894129484e+02 0.0000000000e+00 0.0000e+00 -1.0000e+00
      -14  1    3    3    0    0 +2.4604661236e+01 +1.7885882918e+01 -3.2905706168e+01 4.4811601854e+01 0.0000000000e+00 0.0000e+00 1.0000e+00
<mgrwt>
<rscale>  0 0.77814479E+02</rscale>
<asrwt>0</asrwt>
<pdfrwt beam="1">  1        1 0.31756832E-01 0.77814479E+02</pdfrwt>
<pdfrwt beam="2">  1       -2 0.11282282E-02 0.77814479E+02</pdfrwt>
<totfact> 0.18054031E+05</totfact>
</mgrwt>
</event>
<event>
 5      1 +7.5707000e+03 7.90952100e+01 7.54677100e-03 1.33163900e-01
       -2 -1    0    0    0  501 -0.0000000000e+00 +0.0000000000e+00 +1.1384289799e+01 1.1384289799e+01 0.0000000000e+00 0.0000e+00 1.0000e+00
        1 -1    0    0  501    0 +0.0000000000e+00 -0.0000000000e+00 -1.3738343815e+02 1.3738343815e+02 0.0000000000e+00 0.0000e+00 -1.0000e+00
      -24  2    1    2    0    0 +0.0000000000e+00 +0.0000000000e+00 -1.2599914835e+02 1.4876772795e+02 7.9095205253e+01 0.0000e+00 0.0000e+00
       11  1    3    3    0    0 +1.3574197107e+01 +3.4713628425e+01 -8.7861081588e+01 9.5440371350e+01 0.0000000000e+00 0.0000e+00 -1.0000e+00
      -12  1    3    3    0    0 -1.3574197107e+01 -3.4713628425e+01 -3.8138066766e+01 5.3327356602e+01 0.0000000000e+00 0.0000e+00 1.0000e+00
<mgrwt>
<rscale>  0 0.79095205E+02</rscale>
<asrwt>0</asrwt>
<pdfrwt beam="1">  1        1 0.21135914E-01 0.79095205E+02</pdfrwt>
<pdfrwt beam="2">  1       -2 0.17514292E-02 0.79095205E+02</pdfrwt>
<totfact> 0.16017021E+05</totfact>
</mgrwt>
</event>
<event>
 5      1 +7.5707000e+03 6.23672000e+01 7.54677100e-03 1.38815800e-01
        3 -1    0    0  501    0 +0.0000000000e+00 +0.0000000000e+00 +1.0537974022e+01 1.0537974022e+01 0.0000000000e+00 0.0000e+00 -1.0000e+00
       -4 -1    0    0    0  501 -0.0000000000e+00 -0.0000000000e+00 -9.2277405433e+01 9.2277405433e+01 0.0000000000e+00 0.0000e+00 1.0000e+00
      -24  2    1    2    0    0 +0.0000000000e+00 +0.0000000000e+00 -8.1739431410e+01 1.0281537946e+02 6.2367199755e+01 0.0000e+00 0.0000e+00
       13  1    3    3    0    0 -1.2525519975e+01 +3.4959793353e+00 +5.8545457668e+00 1.4261354364e+01 0.0000000000e+00 0.0000e+00 -1.0000e+00
      -14  1    3    3    0    0 +1.2525519975e+01 -3.4959793353e+00 -8.7593977177e+01 8.8554025091e+01 0.0000000000e+00 0.0000e+00 1.0000e+00
<mgrwt>
<rscale>  0 0.62367200E+02</rscale>
<asrwt>0</asrwt>
<pdfrwt beam="1">  1        3 0.16212268E-02 0.62367200E+02</pdfrwt>
<pdfrwt beam="2">  1       -4 0.14196524E-01 0.62367200E+02</pdfrwt>
<totfact> 0.79813473E+04</totfact>
</mgrwt>
</event>
<event>
 5      1 +7.5707000e+03 8.03038900e+01 7.54677100e-03 1.32819100e-01
       -2 -1    0    0    0  501 -0.0000000000e+00 +0.0000000000e+00 +4.1089563640e+02 4.1089563640e+02 0.0000000000e+00 0.0000e+00 1.0000e+00
        1 -1    0    0  501    0 +0.0000000000e+00 -0.0000000000e+00 -3.9235721513e+00 3.9235721513e+00 0.0000000000e+00 0.0000e+00 -1.0000e+00
      -24  2    1    2    0    0 +0.0000000000e+00 +0.0000000000e+00 +4.0697206425e+02 4.1481920855e+02 8.0303889721e+01 0.0000e+00 0.0000e+00
       13  1    3    3    0    0 -1.1437272366e+01 -1.5865808737e+01 +2.2347058866e+01 2.9697241051e+01 0.0000000000e+00 0.0000e+00 -1.0000e+00
      -14  1    3    3    0    0 +1.1437272366e+01 +1.5865808737e+01 +3.8462500538e+02 3.8512196750e+02 0.0000000000e+00 0.0000e+00 1.0000e+00
<mgrwt>
<rscale>  0 0.80303890E+02</rscale>
<asrwt>0</asrwt>
<pdfrwt beam="1">  1        1 0.60362681E-03 0.80303890E+02</pdfrwt>
<pdfrwt beam="2">  1       -2 0.63214679E-01 0.80303890E+02</pdfrwt>
<totfact> 0.57474930E+04</totfact>
</mgrwt>
</event>
<event>
 5      1 +7.5707000e+03 8.00144800e+01 7.54677100e-03 1.32901000e-01
        1 -1    0    0  501    0 +0.0000000000e+00 +0.0000000000e+00 +5.0580403511e+00 5.0580403511e+00 0.0000000000e+00 0.0000e+00 -1.0000e+00
       -2 -1    0    0    0  501 -0.0000000000e+00 -0.0000000000e+00 -3.1644259111e+02 3.1644259111e+02 0.0000000000e+00 0.0000e+00 1.0000e+00
      -24  2    1    2    0    0 +0.0000000000e+00 +0.0000000000e+00 -3.1138455075e+02 3.2150063146e+02 8.0014483554e+01 0.0000e+00 0.0000e+00
       13  1    3    3    0    0 +7.1418808480e+00 -3.2786797372e+01 -6.8158317663e+01 7.5970631238e+01 0.0000000000e+00 0.0000e+00 -1.0000e+00
      -14  1    3    3    0    0 -7.1418808480e+00 +3.2786797372e+01 -2.4322623309e+02 2.4553000022e+02 0.0000000000e+00 0.0000e+00 1.0000e+00
<mgrwt>
<rscale>  0 0.80014484E+02</rscale>
<asrwt>0</asrwt>
<pdfrwt beam="1">  1        1 0.77815988E-03 0.80014484E+02</pdfrwt>
<pdfrwt beam="2">  1       -2 0.48683487E-01 0.80014484E+02</pdfrwt>
<totfact> 0.68190024E+04</totfact>
</mgrwt>
</event>
<event>
 5      1 +7.5707000e+03 8.50203300e+01 7.54677100e-03 1.31537900e-01
       -4 -1    0    0    0  501 -0.0000000000e+00 +0.0000000000e+00 +1.0786081935e+02 1.0786081935e+02 0.0000000000e+00 0.0000e+00 1.0000e+00
        3 -1    0    0  501    0 +0.0000000000e+00 -0.0000000000e+00 -1.6754130682e+01 1.6754130682e+01 0.0000000000e+00 0.0000e+00 -1.0000e+00
      -24  2    1    2    0    0 +0.0000000000e+00 +0.0000000000e+00 +9.1106688672e+01 1.2461495004e+02 8.5020333165e+01 0.0000e+00 0.0000e+00
       13  1    3    3    0    0 -3.0219462700e+01 -2.5064007071e+01 +2.1662135417e+01 4.4840478222e+01 0.0000000000e+00 0.0000e+00 -1.0000e+00
      -14  1    3    3    0    0 +3.0219462700e+01 +2.5064007071e+01 +6.9444553255e+01 7.9774471814e+01 0.0000000000e+00 0.0000e+00 1.0000e+00
<mgrwt>
<rscale>  0 0.85020333E+02</rscale>
<asrwt>0</asrwt>
<pdfrwt beam="1">  1        3 0.25775586E-02 0.85020333E+02</pdfrwt>
<pdfrwt beam="2">  1       -4 0.16593972E-01 0.85020333E+02</pdfrwt>
<totfact> 0.33721923E+04</totfact>
</mgrwt>
</event>
<event>
 5      1 +7.5707000e+03 8.42541900e+01 7.54677100e-03 1.31739500e-01
       -2 -1    0    0    0  501 -0.0000000000e+00 +0.0000000000e+00 +1.0956375928e+02 1.0956375928e+02 0.0000000000e+00 0.0000e+00 1.0000e+00
        1 -1    0    0  501    0 +0.0000000000e+00 -0.0000000000e+00 -1.6197800797e+01 1.6197800797e+01 0.0000000000e+00 0.0000e+00 -1.0000e+00
      -24  2    1    2    0    0 +0.0000000000e+00 +0.0000000000e+00 +9.3365958484e+01 1.2576156008e+02 8.4254185591e+01 0.0000e+00 0.0000e+00
       11  1    3    3    0    0 +1.9246250742e+01 +1.2508793704e+01 -6.0435996492e+00 2.3736326259e+01 0.0000000000e+00 0.0000e+00 -1.0000e+00
      -12  1    3    3    0    0 -1.9246250742e+01 -1.2508793704e+01 +9.9409558133e+01 1.0202523382e+02 0.0000000000e+00 0.0000e+00 1.0000e+00
<mgrwt>
<rscale>  0 0.84254186E+02</rscale>
<asrwt>0</asrwt>
<pdfrwt beam="1">  1        1 0.24919694E-02 0.84254186E+02</pdfrwt>
<pdfrwt beam="2">  1       -2 0.16855962E-01 0.84254186E+02</pdfrwt>
<totfact> 0.90769690E+04</totfact>
</mgrwt>
</event>
<event>
 5      1 +7.5707000e+03 8.06820900e+01 7.54677100e-03 1.32712700e-01
       -4 -1    0    0    0  501 -0.0000000000e+00 +0.0000000000e+00 +8.8113384243e+01 8.8113384243e+01 0.0000000000e+00 0.0000e+00 1.0000e+00
        3 -1    0    0  501    0 +0.0000000000e+00 -0.0000000000e+00 -1.8469382611e+01 1.8469382611e+01 0.0000000000e+00 0.0000e+00 -1.0000e+00
      -24  2    1    2    0    0 +0.0000000000e+00 +0.0000000000e+00 +6.9644001632e+01 1.0658276685e+02 8.0682087399e+01 0.0000e+00 0.0000e+00
       11  1    3    3    0    0 -1.8581492834e+01 +1.5869351074e+01 -7.5803514554e+00 2.5584563855e+01 0.0000000000e+00 0.0000e+00 -1.0000e+00
      -12  1    3    3    0    0 +1.8581492834e+01 -1.5869351074e+01 +7.7224353087e+01 8.0998203000e+01 0.0000000000e+00 0.0000e+00 1.0000e+00
<mgrwt>
<rscale>  0 0.80682087E+02</rscale>
<asrwt>0</asrwt>
<pdfrwt beam="1">  1        3 0.28414435E-02 0.80682087E+02</pdfrwt>
<pdfrwt beam="2">  1       -4 0.13555905E-01 0.80682087E+02</pdfrwt>
<totfact> 0.40552406E+04</totfact>
</mgrwt>
</event>
</LesHouchesEvents>
